pwdft (NWChemEx) - Version 1.0

============================== echo of input deck ==============================
Title "Benzene test"

memory 1900 mb
start benzene-pspw
echo



geometry angstroms noautosym noautoz
C   0.116672 1.386739 0.0
C   -1.142654 0.794419 0.0
C   -1.259277 -0.592319 0.0
C   -0.116677 -1.386735 0.0
C   1.142654 -0.794421 0.0
C   1.259280 0.592324 0.0
H   -2.030702 1.411908 0.0
H   -2.238046 -1.052702 0.0
H   -0.207350 -2.464561 0.0
H   2.030705 -1.411914  0.0
H   2.238054 1.052710  0.0
H   0.207341 2.464567  0.0
end

nwpw
   pseudopotentials
   H library pspw_default
   C library pspw_default
   end

   simulation_cell
     SC 26.0
   end
   2d-hcurve
   
   xc pbe
   cutoff 30.0
end

task pspw optimize

================================================================================

              NorthwestEx Computational Chemistry Package 1.0.0
           --------------------------------------------------------

                  Pacific Northwest National Laboratory
                           Richland, WA 99354

                         Copyright (c) 2020
                  Pacific Northwest National Laboratory
                       Battelle Memorial Institute

        NWChemEx is an open-source computational chemistry package
                   distributed under the terms of the
                 Educational Community License (ECL) 2.0
        A copy of the license is included with this distribution
                         in the LICENSE.TXT file

                             ACKNOWLEDGMENT
                             --------------

       This software and its documentation were developed at the
       Pacific Northwest National Laboratory, a multiprogram
       national laboratory, operated for the U.S. Department of Energy
       by Battelle under Contract Number DE-AC05-76RL01830. Support
       for this work was provided by the Department of Energy 
       Office of Advanced Scientific Computing and the Office of Basic
       Energy Sciences.

       Job information
       ---------------
       program               = pwdft (NWChemEx)
       build configured      = Thu Apr 14 17:53:54 2022
       source                = /home/bylaska/Codes/PWDFT/Nwpw
       version               = 1.0
       default psp libraries = /home/bylaska/Codes/PWDFT/Nwpw/libraryps

       date                  = Fri Apr 15 19:16:24 2022
       nproc                 = 8
       input                 = benzene.nw



First rtdbstr={"current_task":"task pspw optimize","dbname":"benzene-pspw","driver":null,"foundtask":true,"geometries":{"geometry":{"autosym":0,"autoz":0,"center":1,"charges":[6.0,6.0,6.0,6.0,6.0,6.0,1.0,1.0,1.0,1.0,1.0,1.0],"conv":1.88972598858,"coords":[0.22047811053960567,2.620554365519955,0.0,-2.1593029597548914,1.5012318679642491,0.0,-2.3796884737210564,-1.119322969987203,0.0,-0.22048755916954874,-2.620551530930972,0.0,2.1593029597548914,-1.5012403717311982,0.0,2.379694142899022,1.119327694302174,0.0,-3.8374703444613827,2.668116878926525,0.0,-4.229293689837515,-1.989320689787629,0.0,-0.3918346837320631,-4.657347334298199,0.0,3.8374760136393493,-2.6681329415974275,0.0,4.229308807645423,1.989331083280566,0.0,0.39181767619816565,4.65735394833916,0.0],"masses":[12.0,12.0,12.0,12.0,12.0,12.0,1.008,1.008,1.008,1.008,1.008,1.008],"nion":12,"symbols":["C","C","C","C","C","C","H","H","H","H","H","H"],"unita":[1.0,0.0,0.0,0.0,1.0,0.0,0.0,0.0,1.0],"velocities":[0.0,0.0,0.0,0.0,0.0,0.0,0.0,0.0,0.0,0.0,0.0,0.0,0.0,0.0,0.0,0.0,0.0,0.0,0.0,0.0,0.0,0.0,0.0,0.0,0.0,0.0,0.0,0.0,0.0,0.0,0.0,0.0,0.0,0.0,0.0,0.0]}},"nwinput_cur":39,"nwinput_lines":["Title \"Benzene test\"","","memory 1900 mb","start benzene-pspw","echo","","","","geometry angstroms noautosym noautoz","C   0.116672 1.386739 0.0","C   -1.142654 0.794419 0.0","C   -1.259277 -0.592319 0.0","C   -0.116677 -1.386735 0.0","C   1.142654 -0.794421 0.0","C   1.259280 0.592324 0.0","H   -2.030702 1.411908 0.0","H   -2.238046 -1.052702 0.0","H   -0.207350 -2.464561 0.0","H   2.030705 -1.411914  0.0","H   2.238054 1.052710  0.0","H   0.207341 2.464567  0.0","end","","nwpw","   pseudopotentials","   H library pspw_default","   C library pspw_default","   end","","   simulation_cell","     SC 26.0","   end","   2d-hcurve","   ","   xc pbe","   cutoff 30.0","end","","task pspw optimize","",""],"nwinput_nlines":41,"nwpw":{"cutoff":[30.0,60.0],"mapping":3,"pseudopotentials":{"C":"pspw_default","H":"pspw_default"},"simulation_cell":{"unita":[26.0,0.0,0.0,0.0,26.0,0.0,0.0,0.0,26.0]},"xc":"pbe"},"permanent_dir":".","psp_library_dir":"","scratch_dir":".","title":"Benzene test"}
First task=3


Running staged energy optimization - lowlevel_rtdbstr = {"current_task":"energy","dbname":"benzene-pspw","driver":null,"foundtask":true,"geometries":{"geometry":{"autosym":0,"autoz":0,"center":1,"charges":[6.0,6.0,6.0,6.0,6.0,6.0,1.0,1.0,1.0,1.0,1.0,1.0],"conv":1.88972598858,"coords":[0.22047811053960567,2.620554365519955,0.0,-2.1593029597548914,1.5012318679642491,0.0,-2.3796884737210564,-1.119322969987203,0.0,-0.22048755916954874,-2.620551530930972,0.0,2.1593029597548914,-1.5012403717311982,0.0,2.379694142899022,1.119327694302174,0.0,-3.8374703444613827,2.668116878926525,0.0,-4.229293689837515,-1.989320689787629,0.0,-0.3918346837320631,-4.657347334298199,0.0,3.8374760136393493,-2.6681329415974275,0.0,4.229308807645423,1.989331083280566,0.0,0.39181767619816565,4.65735394833916,0.0],"masses":[12.0,12.0,12.0,12.0,12.0,12.0,1.008,1.008,1.008,1.008,1.008,1.008],"nion":12,"symbols":["C","C","C","C","C","C","H","H","H","H","H","H"],"unita":[1.0,0.0,0.0,0.0,1.0,0.0,0.0,0.0,1.0],"velocities":[0.0,0.0,0.0,0.0,0.0,0.0,0.0,0.0,0.0,0.0,0.0,0.0,0.0,0.0,0.0,0.0,0.0,0.0,0.0,0.0,0.0,0.0,0.0,0.0,0.0,0.0,0.0,0.0,0.0,0.0,0.0,0.0,0.0,0.0,0.0,0.0]}},"nwinput_cur":39,"nwinput_lines":["Title \"Benzene test\"","","memory 1900 mb","start benzene-pspw","echo","","","","geometry angstroms noautosym noautoz","C   0.116672 1.386739 0.0","C   -1.142654 0.794419 0.0","C   -1.259277 -0.592319 0.0","C   -0.116677 -1.386735 0.0","C   1.142654 -0.794421 0.0","C   1.259280 0.592324 0.0","H   -2.030702 1.411908 0.0","H   -2.238046 -1.052702 0.0","H   -0.207350 -2.464561 0.0","H   2.030705 -1.411914  0.0","H   2.238054 1.052710  0.0","H   0.207341 2.464567  0.0","end","","nwpw","   pseudopotentials","   H library pspw_default","   C library pspw_default","   end","","   simulation_cell","     SC 26.0","   end","   2d-hcurve","   ","   xc pbe","   cutoff 30.0","end","","task pspw optimize","",""],"nwinput_nlines":41,"nwpw":{"cutoff":[10.0,20.0],"mapping":3,"pseudopotentials":{"C":"pspw_default","H":"pspw_default"},"simulation_cell":{"unita":[26.0,0.0,0.0,0.0,26.0,0.0,0.0,0.0,26.0]},"xc":"pbe"},"permanent_dir":".","psp_library_dir":"","scratch_dir":".","title":"Benzene test"}

          *****************************************************
          *                                                   *
          *               PWDFT PSPW Calculation              *
          *                                                   *
          *  [ (Grassmann/Stiefel manifold implementation) ]  *
          *  [              C++ implementation             ]  *
          *                                                   *
          *              version #7.00   02/27/21             *
          *                                                   *
          *    This code was developed by Eric J. Bylaska,    *
          *    Abhishek Bagusetty, David H. Bross, ...        *
          *                                                   *
          *****************************************************
          >>> job started at       Fri Apr 15 19:16:24 2022 <<<

 psp_library: /home/bylaska/Codes/PWDFT/Nwpw/libraryps

 C library pspw_default
 H library pspw_default

 generating 1d pseudopotential file: ./C.psp
 generating 1d pseudopotential file: ./H.psp

 writing formatted psp filename: ./C.vpp

 writing formatted psp filename: ./H.vpp
 generating random psi from scratch
 Warning - Gram-Schmidt being performed on psi2

          ==============  summary of input  ==================

 input psi filename: ./benzene-pspw.movecs

 number of processors used: 8
 processor grid           : 8 x1
 parallel mapping         : 2d-hcurve
 parallel mapping         : balanced

 options:
   boundary conditions  = periodic
   electron spin        = restricted
   exchange-correlation = PBE96 (White and Bird) parameterization

 elements involved in the cluster:
      1: C   valence charge :  4.0  lmax=2
             comment : Parameterized (J.Phys.Chem., vol 100, page 6966) Hamman psp 
             pseudopotential type            :  0
             highest angular component       :  2
             local potential used            :  2
             number of non-local projections :  4
             cutoff =    0.800   0.850   0.850
      2: H   valence charge :  1.0  lmax=1
             comment : Parameterized (Chem.Phys.Lett., vol 322, page 447) Hamman psp 
             pseudopotential type            :  0
             highest angular component       :  1
             local potential used            :  1
             number of non-local projections :  1
             cutoff =    0.800   0.800

 total charge:   0.000

 atom composition:
   C : 6   H : 6

 initial ion positions (au):
   1 C	(    0.22048    2.62055    0.00000 ) - atomic mass = 12.000
   2 C	(   -2.15930    1.50123    0.00000 ) - atomic mass = 12.000
   3 C	(   -2.37969   -1.11932    0.00000 ) - atomic mass = 12.000
   4 C	(   -0.22049   -2.62055    0.00000 ) - atomic mass = 12.000
   5 C	(    2.15930   -1.50124    0.00000 ) - atomic mass = 12.000
   6 C	(    2.37969    1.11933    0.00000 ) - atomic mass = 12.000
   7 H	(   -3.83747    2.66812    0.00000 ) - atomic mass =  1.008
   8 H	(   -4.22929   -1.98932    0.00000 ) - atomic mass =  1.008
   9 H	(   -0.39183   -4.65735    0.00000 ) - atomic mass =  1.008
  10 H	(    3.83748   -2.66813    0.00000 ) - atomic mass =  1.008
  11 H	(    4.22931    1.98933    0.00000 ) - atomic mass =  1.008
  12 H	(    0.39182    4.65735    0.00000 ) - atomic mass =  1.008
   G.C.	(    0.00000    0.00000    0.00000 )
 C.O.M.	(   -0.00000   -0.00000    0.00000 )

 number of electrons: spin up=    15 (  15 per task) down=    15 (  15 per task)

 supercell:
      volume =   17576.00
      lattice:    a1=<   26.000    0.000    0.000 >
                  a2=<    0.000   26.000    0.000 >
                  a3=<    0.000    0.000   26.000 >
      reciprocal: b1=<    0.242    0.000    0.000 >
                  b2=<    0.000    0.242    0.000 >
                  b3=<    0.000    0.000    0.242 >
      lattice:    a=      26.000 b=     26.000 c=      26.000
                  alpha=  90.000 beta=  90.000 gamma=  90.000
      density cutoff=  20.000 fft=   54 x   54 x   54  (   37447 waves     4680 per task)
      wavefnc cutoff=  10.000 fft=   54 x   54 x   54  (   13373 waves     1671 per task)

 ewald parameters:
      energy cutoff=  20.000 fft=   54 x   54 x   54  (   37447 waves     4681 per task)
      Ewald summation: cut radius=    8.276 and   1
                       Mandelung Wigner-Seitz=   1.76011888 (alpha=  2.83729748 rs=16.12911276)

 technical parameters:
      time step=        5.80  ficticious mass=  400000.00
      tolerance=   1.000e-07 (energy)    1.000e-07 (density)    1.000e-04 (ion)
      max iterations =       1000 (   10 inner   100 outer)
      minimizer = Grassmann conjugate gradient



     ============ Grassmann conjugate gradient iteration ============
          >>> iteration started at Fri Apr 15 19:16:24 2022  <<<
     iter.                 Energy          DeltaE        DeltaRho
     ----------------------------------------------------------------
        - 10 steepest descent iterations performed
        10      -2.988878488725e+01   -1.292276e+00    7.810979e-04
        - 10 steepest descent iterations performed
        20      -3.626670498281e+01   -1.969940e-01    9.512632e-06
        - 10 steepest descent iterations performed
        30      -3.723766883866e+01   -1.114468e-02    8.144754e-07
        - 10 steepest descent iterations performed
        40      -3.734249799775e+01   -4.958515e-05    2.274015e-07
        50      -3.734262365501e+01   -5.605757e-07    1.823894e-09
        60      -3.734262424301e+01   -7.660877e-08    1.713603e-10
     *** tolerance ok. iteration terminated
          >>> iteration ended at   Fri Apr 15 19:16:39 2022  <<<

     ==============  energy results (Molecule object)  ==============


 number of electrons: spin up=    15.00000  down=    15.00000 (real space)

 total     energy    :   -3.7342624243e+01 (   -3.11189e+00 /ion)
 total orbital energy:   -1.3194693368e+01 (   -8.79646e-01 /electron)
 hartree energy      :    8.3269585438e+01 (    5.55131e+00 /electron)
 exc-corr energy     :   -1.2531973869e+01 (   -8.35465e-01 /electron)
 ion-ion energy      :    5.5382814873e+01 (    4.61523e+00 /ion)

 kinetic (planewave) :    2.6178617996e+01 (    1.74524e+00 /electron)
 V_local (planewave) :   -1.8925243878e+02 (   -1.26168e+01 /electron)
 V_nl    (planewave) :   -3.8922989909e-01 (   -2.59487e-02 /electron)
 V_Coul  (planewave) :    1.6653917088e+02 (    1.11026e+01 /electron)
 V_xc    (planewave) :   -1.6270813560e+01 (   -1.08472e+00 /electron)
 Viral Coefficient   :   -1.5040255895e+00

 orbital energy:
    -2.2494572e-01 (  -6.121eV)
    -2.2499197e-01 (  -6.122eV)
    -2.9349037e-01 (  -7.986eV)
    -2.9362702e-01 (  -7.990eV)
    -3.2757370e-01 (  -8.914eV)
    -3.6865514e-01 ( -10.032eV)
    -3.6881460e-01 ( -10.036eV)
    -3.9495785e-01 ( -10.747eV)
    -4.0570732e-01 ( -11.040eV)
    -4.6951804e-01 ( -12.776eV)
    -5.4208062e-01 ( -14.751eV)
    -5.4223239e-01 ( -14.755eV)
    -6.7872779e-01 ( -18.469eV)
    -6.7875052e-01 ( -18.470eV)
    -7.8327362e-01 ( -21.314eV)

 output psi to filename: ./benzene-pspw.movecs

 -----------------
 cputime in seconds
 prologue    : 3.379280e-01
 main loop   : 1.490446e+01
 epilogue    : 2.536100e-02
 total       : 1.526775e+01
 cputime/step: 6.210193e-02 ( 240 evaluations, 4 linesearches)

 Time spent doing      total        step             percent
 total time            1.551882e+01 6.466176e-02     100.00%
 total FFT time        9.002697e+00 3.751124e-02      58.01%
 lagrange multipliers  1.787711e-01 7.448794e-04       1.15%
 local potentials      2.916548e-03 1.215228e-05       0.02%
 non-local potentials  1.749820e+00 7.290919e-03      11.28%
 ffm_dgemm             5.833068e-01 2.430445e-03       3.76%
 fmf_dgemm             1.471159e+00 6.129828e-03       9.48%
 m_diagonalize         3.644621e-03 1.518592e-05       0.02%
 mmm_multiply          9.995263e-03 4.164693e-05       0.06%

 >>> job completed at     Fri Apr 15 19:16:39 2022 <<<

Running staged energy optimization - lowlevel_rtdbstr = {"current_task":"energy","dbname":"benzene-pspw","driver":null,"foundtask":true,"geometries":{"geometry":{"autosym":0,"autoz":0,"center":1,"charges":[6.0,6.0,6.0,6.0,6.0,6.0,1.0,1.0,1.0,1.0,1.0,1.0],"conv":1.88972598858,"coords":[0.22047811053960567,2.620554365519955,0.0,-2.1593029597548914,1.5012318679642491,0.0,-2.3796884737210564,-1.119322969987203,0.0,-0.22048755916954874,-2.620551530930972,0.0,2.1593029597548914,-1.5012403717311982,0.0,2.379694142899022,1.119327694302174,0.0,-3.8374703444613827,2.668116878926525,0.0,-4.229293689837515,-1.989320689787629,0.0,-0.3918346837320631,-4.657347334298199,0.0,3.8374760136393493,-2.6681329415974275,0.0,4.229308807645423,1.989331083280566,0.0,0.39181767619816565,4.65735394833916,0.0],"masses":[12.0,12.0,12.0,12.0,12.0,12.0,1.008,1.008,1.008,1.008,1.008,1.008],"nion":12,"symbols":["C","C","C","C","C","C","H","H","H","H","H","H"],"unita":[1.0,0.0,0.0,0.0,1.0,0.0,0.0,0.0,1.0],"velocities":[0.0,0.0,0.0,0.0,0.0,0.0,0.0,0.0,0.0,0.0,0.0,0.0,0.0,0.0,0.0,0.0,0.0,0.0,0.0,0.0,0.0,0.0,0.0,0.0,0.0,0.0,0.0,0.0,0.0,0.0,0.0,0.0,0.0,0.0,0.0,0.0]}},"nwinput_cur":39,"nwinput_lines":["Title \"Benzene test\"","","memory 1900 mb","start benzene-pspw","echo","","","","geometry angstroms noautosym noautoz","C   0.116672 1.386739 0.0","C   -1.142654 0.794419 0.0","C   -1.259277 -0.592319 0.0","C   -0.116677 -1.386735 0.0","C   1.142654 -0.794421 0.0","C   1.259280 0.592324 0.0","H   -2.030702 1.411908 0.0","H   -2.238046 -1.052702 0.0","H   -0.207350 -2.464561 0.0","H   2.030705 -1.411914  0.0","H   2.238054 1.052710  0.0","H   0.207341 2.464567  0.0","end","","nwpw","   pseudopotentials","   H library pspw_default","   C library pspw_default","   end","","   simulation_cell","     SC 26.0","   end","   2d-hcurve","   ","   xc pbe","   cutoff 30.0","end","","task pspw optimize","",""],"nwinput_nlines":41,"nwpw":{"cutoff":[20.0,40.0],"mapping":3,"pseudopotentials":{"C":"pspw_default","H":"pspw_default"},"simulation_cell":{"unita":[26.0,0.0,0.0,0.0,26.0,0.0,0.0,0.0,26.0]},"xc":"pbe"},"permanent_dir":".","psp_library_dir":"","scratch_dir":".","title":"Benzene test"}

          *****************************************************
          *                                                   *
          *               PWDFT PSPW Calculation              *
          *                                                   *
          *  [ (Grassmann/Stiefel manifold implementation) ]  *
          *  [              C++ implementation             ]  *
          *                                                   *
          *              version #7.00   02/27/21             *
          *                                                   *
          *    This code was developed by Eric J. Bylaska,    *
          *    Abhishek Bagusetty, David H. Bross, ...        *
          *                                                   *
          *****************************************************
          >>> job started at       Fri Apr 15 19:16:39 2022 <<<

 psp_library: /home/bylaska/Codes/PWDFT/Nwpw/libraryps

 C library pspw_default
 H library pspw_default


 writing formatted psp filename: ./C.vpp

 writing formatted psp filename: ./H.vpp
 psi grids are being converted: 
 -----------------------------: 
 converting .... psi:1 spin:1
 converting .... psi:2 spin:1
 converting .... psi:3 spin:1
 converting .... psi:4 spin:1
 converting .... psi:5 spin:1
 converting .... psi:6 spin:1
 converting .... psi:7 spin:1
 converting .... psi:8 spin:1
 converting .... psi:9 spin:1
 converting .... psi:10 spin:1
 converting .... psi:11 spin:1
 converting .... psi:12 spin:1
 converting .... psi:13 spin:1
 converting .... psi:14 spin:1
 converting .... psi:15 spin:1

 input psi exists, reading from file: ./benzene-pspw.movecs

          ==============  summary of input  ==================

 input psi filename: ./benzene-pspw.movecs

 number of processors used: 8
 processor grid           : 8 x1
 parallel mapping         : 2d-hcurve
 parallel mapping         : balanced

 options:
   boundary conditions  = periodic
   electron spin        = restricted
   exchange-correlation = PBE96 (White and Bird) parameterization

 elements involved in the cluster:
      1: C   valence charge :  4.0  lmax=2
             comment : Parameterized (J.Phys.Chem., vol 100, page 6966) Hamman psp 
             pseudopotential type            :  0
             highest angular component       :  2
             local potential used            :  2
             number of non-local projections :  4
             cutoff =    0.800   0.850   0.850
      2: H   valence charge :  1.0  lmax=1
             comment : Parameterized (Chem.Phys.Lett., vol 322, page 447) Hamman psp 
             pseudopotential type            :  0
             highest angular component       :  1
             local potential used            :  1
             number of non-local projections :  1
             cutoff =    0.800   0.800

 total charge:   0.000

 atom composition:
   C : 6   H : 6

 initial ion positions (au):
   1 C	(    0.22048    2.62055    0.00000 ) - atomic mass = 12.000
   2 C	(   -2.15930    1.50123    0.00000 ) - atomic mass = 12.000
   3 C	(   -2.37969   -1.11932    0.00000 ) - atomic mass = 12.000
   4 C	(   -0.22049   -2.62055    0.00000 ) - atomic mass = 12.000
   5 C	(    2.15930   -1.50124    0.00000 ) - atomic mass = 12.000
   6 C	(    2.37969    1.11933    0.00000 ) - atomic mass = 12.000
   7 H	(   -3.83747    2.66812    0.00000 ) - atomic mass =  1.008
   8 H	(   -4.22929   -1.98932    0.00000 ) - atomic mass =  1.008
   9 H	(   -0.39183   -4.65735    0.00000 ) - atomic mass =  1.008
  10 H	(    3.83748   -2.66813    0.00000 ) - atomic mass =  1.008
  11 H	(    4.22931    1.98933    0.00000 ) - atomic mass =  1.008
  12 H	(    0.39182    4.65735    0.00000 ) - atomic mass =  1.008
   G.C.	(    0.00000    0.00000    0.00000 )
 C.O.M.	(   -0.00000   -0.00000    0.00000 )

 number of electrons: spin up=    15 (  15 per task) down=    15 (  15 per task)

 supercell:
      volume =   17576.00
      lattice:    a1=<   26.000    0.000    0.000 >
                  a2=<    0.000   26.000    0.000 >
                  a3=<    0.000    0.000   26.000 >
      reciprocal: b1=<    0.242    0.000    0.000 >
                  b2=<    0.000    0.242    0.000 >
                  b3=<    0.000    0.000    0.242 >
      lattice:    a=      26.000 b=     26.000 c=      26.000
                  alpha=  90.000 beta=  90.000 gamma=  90.000
      density cutoff=  40.000 fft=   80 x   80 x   80  (  106048 waves    13256 per task)
      wavefnc cutoff=  20.000 fft=   80 x   80 x   80  (   37447 waves     4680 per task)

 ewald parameters:
      energy cutoff=  40.000 fft=   80 x   80 x   80  (  106048 waves    13256 per task)
      Ewald summation: cut radius=    8.276 and   1
                       Mandelung Wigner-Seitz=   1.76011888 (alpha=  2.83729748 rs=16.12911276)

 technical parameters:
      time step=        5.80  ficticious mass=  400000.00
      tolerance=   1.000e-07 (energy)    1.000e-07 (density)    1.000e-04 (ion)
      max iterations =       1000 (   10 inner   100 outer)
      minimizer = Grassmann conjugate gradient



     ============ Grassmann conjugate gradient iteration ============
          >>> iteration started at Fri Apr 15 19:16:40 2022  <<<
     iter.                 Energy          DeltaE        DeltaRho
     ----------------------------------------------------------------
        - 10 steepest descent iterations performed
        10      -3.786040447185e+01   -2.610921e-05    2.703306e-08
        20      -3.786044109981e+01   -3.076272e-07    1.762472e-09
        30      -3.786044127432e+01   -7.358391e-08    1.663311e-10
     *** tolerance ok. iteration terminated
          >>> iteration ended at   Fri Apr 15 19:16:56 2022  <<<

     ==============  energy results (Molecule object)  ==============


 number of electrons: spin up=    15.00000  down=    15.00000 (real space)

 total     energy    :   -3.7860441274e+01 (   -3.15504e+00 /ion)
 total orbital energy:   -1.3051471198e+01 (   -8.70098e-01 /electron)
 hartree energy      :    8.3955909890e+01 (    5.59706e+00 /electron)
 exc-corr energy     :   -1.2619234037e+01 (   -8.41282e-01 /electron)
 ion-ion energy      :    5.5382814873e+01 (    4.61523e+00 /ion)

 kinetic (planewave) :    2.7618948451e+01 (    1.84126e+00 /electron)
 V_local (planewave) :   -1.9093328082e+02 (   -1.27289e+01 /electron)
 V_nl    (planewave) :   -1.2655996325e+00 (   -8.43733e-02 /electron)
 V_Coul  (planewave) :    1.6791181978e+02 (    1.11941e+01 /electron)
 V_xc    (planewave) :   -1.6383358977e+01 (   -1.09222e+00 /electron)
 Viral Coefficient   :   -1.4725549643e+00

 orbital energy:
    -2.2511063e-01 (  -6.126eV)
    -2.2512202e-01 (  -6.126eV)
    -2.9675128e-01 (  -8.075eV)
    -2.9681323e-01 (  -8.077eV)
    -3.2510475e-01 (  -8.847eV)
    -3.6893225e-01 ( -10.039eV)
    -3.6900335e-01 ( -10.041eV)
    -3.9508986e-01 ( -10.751eV)
    -4.0151309e-01 ( -10.926eV)
    -4.6674235e-01 ( -12.701eV)
    -5.3313090e-01 ( -14.507eV)
    -5.3317952e-01 ( -14.509eV)
    -6.6244399e-01 ( -18.026eV)
    -6.6247282e-01 ( -18.027eV)
    -7.6432558e-01 ( -20.799eV)

 output psi to filename: ./benzene-pspw.movecs

 -----------------
 cputime in seconds
 prologue    : 3.987530e-01
 main loop   : 1.594892e+01
 epilogue    : 7.734900e-02
 total       : 1.642502e+01
 cputime/step: 2.018850e-01 ( 79 evaluations, 2 linesearches)

 Time spent doing      total        step             percent
 total time            3.196342e+01 4.046003e-01     100.00%
 total FFT time        1.846425e+01 2.337246e-01      57.77%
 lagrange multipliers  3.067689e-01 3.883150e-03       0.96%
 local potentials      1.155828e-02 1.463074e-04       0.04%
 non-local potentials  3.541490e+00 4.482899e-02      11.08%
 ffm_dgemm             1.187503e+00 1.503168e-02       3.72%
 fmf_dgemm             3.041369e+00 3.849834e-02       9.52%
 m_diagonalize         5.575917e-03 7.058123e-05       0.02%
 mmm_multiply          1.297935e-02 1.642956e-04       0.04%

 >>> job completed at     Fri Apr 15 19:16:56 2022 <<<

Running geometry optimization calculation - rtdbstr = {"current_task":"task pspw optimize","dbname":"benzene-pspw","driver":null,"foundtask":true,"geometries":{"geometry":{"autosym":0,"autoz":0,"center":1,"charges":[6.0,6.0,6.0,6.0,6.0,6.0,1.0,1.0,1.0,1.0,1.0,1.0],"conv":1.88972598858,"coords":[0.22047811053960567,2.620554365519955,0.0,-2.1593029597548914,1.5012318679642491,0.0,-2.3796884737210564,-1.119322969987203,0.0,-0.22048755916954874,-2.620551530930972,0.0,2.1593029597548914,-1.5012403717311982,0.0,2.379694142899022,1.119327694302174,0.0,-3.8374703444613827,2.668116878926525,0.0,-4.229293689837515,-1.989320689787629,0.0,-0.3918346837320631,-4.657347334298199,0.0,3.8374760136393493,-2.6681329415974275,0.0,4.229308807645423,1.989331083280566,0.0,0.39181767619816565,4.65735394833916,0.0],"masses":[12.0,12.0,12.0,12.0,12.0,12.0,1.008,1.008,1.008,1.008,1.008,1.008],"nion":12,"symbols":["C","C","C","C","C","C","H","H","H","H","H","H"],"unita":[1.0,0.0,0.0,0.0,1.0,0.0,0.0,0.0,1.0],"velocities":[0.0,0.0,0.0,0.0,0.0,0.0,0.0,0.0,0.0,0.0,0.0,0.0,0.0,0.0,0.0,0.0,0.0,0.0,0.0,0.0,0.0,0.0,0.0,0.0,0.0,0.0,0.0,0.0,0.0,0.0,0.0,0.0,0.0,0.0,0.0,0.0]}},"nwinput_cur":39,"nwinput_lines":["Title \"Benzene test\"","","memory 1900 mb","start benzene-pspw","echo","","","","geometry angstroms noautosym noautoz","C   0.116672 1.386739 0.0","C   -1.142654 0.794419 0.0","C   -1.259277 -0.592319 0.0","C   -0.116677 -1.386735 0.0","C   1.142654 -0.794421 0.0","C   1.259280 0.592324 0.0","H   -2.030702 1.411908 0.0","H   -2.238046 -1.052702 0.0","H   -0.207350 -2.464561 0.0","H   2.030705 -1.411914  0.0","H   2.238054 1.052710  0.0","H   0.207341 2.464567  0.0","end","","nwpw","   pseudopotentials","   H library pspw_default","   C library pspw_default","   end","","   simulation_cell","     SC 26.0","   end","   2d-hcurve","   ","   xc pbe","   cutoff 30.0","end","","task pspw optimize","",""],"nwinput_nlines":41,"nwpw":{"cutoff":[30.0,60.0],"mapping":3,"pseudopotentials":{"C":"pspw_default","H":"pspw_default"},"simulation_cell":{"unita":[26.0,0.0,0.0,0.0,26.0,0.0,0.0,0.0,26.0]},"xc":"pbe"},"permanent_dir":".","psp_library_dir":"","scratch_dir":".","title":"Benzene test"}

          *****************************************************
          *                                                   *
          *             PWDFT PSPW GeoVib Calculation         *
          *                                                   *
          *  [ (Grassmann/Stiefel manifold implementation) ]  *
          *  [              C++ implementation             ]  *
          *                                                   *
          *              version #7.00   02/27/21             *
          *                                                   *
          *    This code was developed by Eric J. Bylaska,    *
          *    Abhishek Bagusetty, David H. Bross, ...        *
          *                                                   *
          *****************************************************
          >>> job started at       Fri Apr 15 19:16:56 2022 <<<

 psp_library: /home/bylaska/Codes/PWDFT/Nwpw/libraryps

 C library pspw_default
 H library pspw_default


 writing formatted psp filename: ./C.vpp

 writing formatted psp filename: ./H.vpp
 psi grids are being converted: 
 -----------------------------: 
 converting .... psi:1 spin:1
 converting .... psi:2 spin:1
 converting .... psi:3 spin:1
 converting .... psi:4 spin:1
 converting .... psi:5 spin:1
 converting .... psi:6 spin:1
 converting .... psi:7 spin:1
 converting .... psi:8 spin:1
 converting .... psi:9 spin:1
 converting .... psi:10 spin:1
 converting .... psi:11 spin:1
 converting .... psi:12 spin:1
 converting .... psi:13 spin:1
 converting .... psi:14 spin:1
 converting .... psi:15 spin:1

 input psi exists, reading from file: ./benzene-pspw.movecs

          ==============  summary of input  ==================

 input psi filename: ./benzene-pspw.movecs

 number of processors used: 8
 processor grid           : 8 x1
 parallel mapping         : 2d-hcurve
 parallel mapping         : balanced

 options:
   boundary conditions  = periodic
   electron spin        = restricted
   exchange-correlation = PBE96 (White and Bird) parameterization

 elements involved in the cluster:
      1: C   valence charge :  4.0  lmax=2
             comment : Parameterized (J.Phys.Chem., vol 100, page 6966) Hamman psp 
             pseudopotential type            :  0
             highest angular component       :  2
             local potential used            :  2
             number of non-local projections :  4
             cutoff =    0.800   0.850   0.850
      2: H   valence charge :  1.0  lmax=1
             comment : Parameterized (Chem.Phys.Lett., vol 322, page 447) Hamman psp 
             pseudopotential type            :  0
             highest angular component       :  1
             local potential used            :  1
             number of non-local projections :  1
             cutoff =    0.800   0.800

 total charge:   0.000

 atom composition:
   C : 6   H : 6

 initial ion positions (au):
   1 C	(    0.22048    2.62055    0.00000 ) - atomic mass = 12.000
   2 C	(   -2.15930    1.50123    0.00000 ) - atomic mass = 12.000
   3 C	(   -2.37969   -1.11932    0.00000 ) - atomic mass = 12.000
   4 C	(   -0.22049   -2.62055    0.00000 ) - atomic mass = 12.000
   5 C	(    2.15930   -1.50124    0.00000 ) - atomic mass = 12.000
   6 C	(    2.37969    1.11933    0.00000 ) - atomic mass = 12.000
   7 H	(   -3.83747    2.66812    0.00000 ) - atomic mass =  1.008
   8 H	(   -4.22929   -1.98932    0.00000 ) - atomic mass =  1.008
   9 H	(   -0.39183   -4.65735    0.00000 ) - atomic mass =  1.008
  10 H	(    3.83748   -2.66813    0.00000 ) - atomic mass =  1.008
  11 H	(    4.22931    1.98933    0.00000 ) - atomic mass =  1.008
  12 H	(    0.39182    4.65735    0.00000 ) - atomic mass =  1.008
   G.C.	(    0.00000    0.00000    0.00000 )
 C.O.M.	(   -0.00000   -0.00000    0.00000 )

 number of electrons: spin up=    15 (  15 per task) down=    15 (  15 per task)

 supercell:
      volume =   17576.00
      lattice:    a1=<   26.000    0.000    0.000 >
                  a2=<    0.000   26.000    0.000 >
                  a3=<    0.000    0.000   26.000 >
      reciprocal: b1=<    0.242    0.000    0.000 >
                  b2=<    0.000    0.242    0.000 >
                  b3=<    0.000    0.000    0.242 >
      lattice:    a=      26.000 b=     26.000 c=      26.000
                  alpha=  90.000 beta=  90.000 gamma=  90.000
      density cutoff=  60.000 fft=   96 x   96 x   96  (  195216 waves    24402 per task)
      wavefnc cutoff=  30.000 fft=   96 x   96 x   96  (   69013 waves     8631 per task)

 ewald parameters:
      energy cutoff=  60.000 fft=   96 x   96 x   96  (  195216 waves    24402 per task)
      Ewald summation: cut radius=    8.276 and   1
                       Mandelung Wigner-Seitz=   1.76011888 (alpha=  2.83729748 rs=16.12911276)

 technical parameters:
      time step=        5.80  ficticious mass=  400000.00
      tolerance=   1.000e-07 (energy)    1.000e-07 (density)    1.000e-04 (ion)
      max iterations =       1000 (   10 inner   100 outer)
      minimizer = Grassmann conjugate gradient



 -----------------------------------------------------------------------------------
 ----------------------------- Geometry Optimization -------------------------------
 -----------------------------------------------------------------------------------

 Optimization parameters:    30 (maxiter)    4.500e-04 (gmax)    3.000e-04 (grms)    1.200e-03 (xrms)    1.800e-03 (xmax)
    maximum number of steps       (maxiter) =   30
    maximum gradient threshold       (Gmax) = 4.500000e-04
    rms gradient threshold           (Grms) = 3.000000e-04
    rms cartesian step threshold     (Xrms) = 1.200000e-03
    maximum cartesian step threshold (Xmax) = 1.800000e-03

    fixed trust radius              (Trust) = 3.000000e-01
    number lmbfgs histories   (lmbfgs_size) =    9


 -----------------------------------------------------------------------------------
 -----------------------------    Initial Geometry     -----------------------------
 -----------------------------------------------------------------------------------

 ---------------------------------
         Initial Geometry         
 ---------------------------------

 Number of Atoms = 12


 Units are Angstrom for bonds and degrees for angles

      Type          I     J     K     L     M      Value
      ----------- ----- ----- ----- ----- ----- ----------
    1 Stretch        C1    C2                      1.39167
    2 Stretch        C1    C3                      2.41037
    3 Stretch        C1    C5                      2.41041
    4 Stretch        C1    C6                      1.39163
    5 Stretch        C1   H12                      1.08163
    6 Stretch        C2    C3                      1.39163
    7 Stretch        C2    C4                      2.41041
    8 Stretch        C2    C6                      2.41042
    9 Stretch        C2    H7                      1.08163
   10 Stretch        C3    C4                      1.39163
   11 Stretch        C3    C5                      2.41042
   12 Stretch        C3    H8                      1.08164
   13 Stretch        C4    C5                      1.39167
   14 Stretch        C4    C6                      2.41038
   15 Stretch        C4    H9                      1.08163
   16 Stretch        C5    C6                      1.39164
   17 Stretch        C5   H10                      1.08163
   18 Stretch        C6   H11                      1.08164
   19 Bend           C2    C1    C3               30.00107
   20 Bend           C2    C1    C5               90.00173
   21 Bend           C2    C1    C6              120.00068
   22 Bend           C2    C1   H12              119.99831
   23 Bend           C3    C1    C5               60.00066
   24 Bend           C3    C1    C6               89.99961
   25 Bend           C3    C1   H12              149.99938
   26 Bend           C5    C1    C6               29.99895
   27 Bend           C5    C1   H12              149.99996
   28 Bend           C6    C1   H12              120.00101
   29 Bend           C1    C2    C3              119.99699
   30 Bend           C1    C2    C4               89.99832
   31 Bend           C1    C2    C6               29.99925
   32 Bend           C1    C2    H7              119.99804
   33 Bend           C3    C2    C4               29.99867
   34 Bend           C3    C2    C6               89.99774
   35 Bend           C3    C2    H7              120.00497
   36 Bend           C4    C2    C6               59.99907
   37 Bend           C4    C2    H7              150.00364
   38 Bend           C6    C2    H7              149.99729
   39 Bend           C1    C3    C2               30.00194
   40 Bend           C1    C3    C4               90.00062
   41 Bend           C1    C3    C5               60.00049
   42 Bend           C1    C3    H8              149.99999
   43 Bend           C2    C3    C4              120.00255
   44 Bend           C2    C3    C5               90.00243
   45 Bend           C2    C3    H8              119.99805
   46 Bend           C4    C3    C5               30.00013
   47 Bend           C4    C3    H8              119.99939
   48 Bend           C5    C3    H8              149.99952
   49 Bend           C2    C4    C3               29.99877
   50 Bend           C2    C4    C5               90.00199
   51 Bend           C2    C4    C6               60.00075
   52 Bend           C2    C4    H9              149.99979
   53 Bend           C3    C4    C5              120.00076
   54 Bend           C3    C4    C6               89.99953
   55 Bend           C3    C4    H9              120.00102
   56 Bend           C5    C4    C6               30.00124
   57 Bend           C5    C4    H9              119.99822
   58 Bend           C6    C4    H9              149.99946
   59 Bend           C1    C5    C3               59.99885
   60 Bend           C1    C5    C4               89.99796
   61 Bend           C1    C5    C6               29.99882
   62 Bend           C1    C5   H10              150.00377
   63 Bend           C3    C5    C4               29.99911
   64 Bend           C3    C5    C6               89.99767
   65 Bend           C3    C5   H10              149.99738
   66 Bend           C4    C5    C6              119.99678
   67 Bend           C4    C5   H10              119.99827
   68 Bend           C6    C5   H10              120.00495
   69 Bend           C1    C6    C2               30.00008
   70 Bend           C1    C6    C4               90.00025
   71 Bend           C1    C6    C5              120.00223
   72 Bend           C1    C6   H11              119.99959
   73 Bend           C2    C6    C4               60.00018
   74 Bend           C2    C6    C5               90.00216
   75 Bend           C2    C6   H11              149.99966
   76 Bend           C4    C6    C5               30.00198
   77 Bend           C4    C6   H11              150.00016
   78 Bend           C5    C6   H11              119.99818
   79 Dihedral       C1    C2    C3    C4          0.00000
   80 Dihedral       C1    C2    C3    C5          0.00000
   81 Dihedral       C1    C2    C3    H8       -180.00000
   82 Dihedral       C1    C2    C4    C3        180.00000
   83 Dihedral       C1    C2    C4    C5          0.00000
   84 Dihedral       C1    C2    C4    C6          0.00000
   85 Dihedral       C1    C2    C4    H9        180.00000
   86 Dihedral       C1    C2    C6    C4        180.00000
   87 Dihedral       C1    C2    C6    C5        180.00000
   88 Dihedral       C1    C2    C6   H11          0.00000
   89 Dihedral       C1    C3    C2    C4         -0.00000
   90 Dihedral       C1    C3    C2    C6         -0.00000
   91 Dihedral       C1    C3    C2    H7        180.00000
   92 Dihedral       C1    C3    C4    C2          0.00000
   93 Dihedral       C1    C3    C4    C5          0.00000
   94 Dihedral       C1    C3    C4    C6          0.00000
   95 Dihedral       C1    C3    C4    H9        180.00000
   96 Dihedral       C1    C3    C5    C4        180.00000
   97 Dihedral       C1    C3    C5    C6          0.00000
   98 Dihedral       C1    C3    C5   H10       -180.00000
   99 Dihedral       C1    C5    C3    C2          0.00000
  100 Dihedral       C1    C5    C3    C4        180.00000
  101 Dihedral       C1    C5    C3    H8        180.00000
  102 Dihedral       C1    C5    C4    C2         -0.00000
  103 Dihedral       C1    C5    C4    C3         -0.00000
  104 Dihedral       C1    C5    C4    C6         -0.00000
  105 Dihedral       C1    C5    C4    H9        180.00000
  106 Dihedral       C1    C5    C6    C2          0.00000
  107 Dihedral       C1    C5    C6    C4          0.00000
  108 Dihedral       C1    C5    C6   H11        180.00000
  109 Dihedral       C1    C6    C2    C3        180.00000
  110 Dihedral       C1    C6    C2    C4        180.00000
  111 Dihedral       C1    C6    C2    H7          0.00000
  112 Dihedral       C1    C6    C4    C2         -0.00000
  113 Dihedral       C1    C6    C4    C3         -0.00000
  114 Dihedral       C1    C6    C4    C5        180.00000
  115 Dihedral       C1    C6    C4    H9        180.00000
  116 Dihedral       C1    C6    C5    C3         -0.00000
  117 Dihedral       C1    C6    C5    C4          0.00000
  118 Dihedral       C1    C6    C5   H10        180.00000
  119 Dihedral       C2    C1    C3    C4        180.00000
  120 Dihedral       C2    C1    C3    C5        180.00000
  121 Dihedral       C2    C1    C3    H8          0.00000
  122 Dihedral       C2    C1    C5    C3         -0.00000
  123 Dihedral       C2    C1    C5    C4          0.00000
  124 Dihedral       C2    C1    C5    C6        180.00000
  125 Dihedral       C2    C1    C5   H10        180.00000
  126 Dihedral       C2    C1    C6    C4          0.00000
  127 Dihedral       C2    C1    C6    C5          0.00000
  128 Dihedral       C2    C1    C6   H11        180.00000
  129 Dihedral       C2    C3    C1    C5       -180.00000
  130 Dihedral       C2    C3    C1    C6       -180.00000
  131 Dihedral       C2    C3    C1   H12          0.00000
  132 Dihedral       C2    C3    C4    C5          0.00000
  133 Dihedral       C2    C3    C4    C6          0.00000
  134 Dihedral       C2    C3    C4    H9        180.00000
  135 Dihedral       C2    C3    C5    C4        180.00000
  136 Dihedral       C2    C3    C5    C6          0.00000
  137 Dihedral       C2    C3    C5   H10       -180.00000
  138 Dihedral       C2    C4    C3    C5          0.00000
  139 Dihedral       C2    C4    C3    H8        180.00000
  140 Dihedral       C2    C4    C5    C3          0.00000
  141 Dihedral       C2    C4    C5    C6          0.00000
  142 Dihedral       C2    C4    C5   H10        180.00000
  143 Dihedral       C2    C4    C6    C5        180.00000
  144 Dihedral       C2    C4    C6   H11        180.00000
  145 Dihedral       C2    C6    C1    C3          0.00000
  146 Dihedral       C2    C6    C1    C5          0.00000
  147 Dihedral       C2    C6    C1   H12        180.00000
  148 Dihedral       C2    C6    C4    C3         -0.00000
  149 Dihedral       C2    C6    C4    C5        180.00000
  150 Dihedral       C2    C6    C4    H9        180.00000
  151 Dihedral       C2    C6    C5    C3         -0.00000
  152 Dihedral       C2    C6    C5    C4          0.00000
  153 Dihedral       C2    C6    C5   H10        180.00000
  154 Dihedral       C3    C1    C2    C4          0.00000
  155 Dihedral       C3    C1    C2    C6          0.00000
  156 Dihedral       C3    C1    C2    H7        180.00000
  157 Dihedral       C3    C1    C5    C4          0.00000
  158 Dihedral       C3    C1    C5    C6        180.00000
  159 Dihedral       C3    C1    C5   H10        180.00000
  160 Dihedral       C3    C1    C6    C4          0.00000
  161 Dihedral       C3    C1    C6    C5          0.00000
  162 Dihedral       C3    C1    C6   H11        180.00000
  163 Dihedral       C3    C2    C1    C5          0.00000
  164 Dihedral       C3    C2    C1    C6          0.00000
  165 Dihedral       C3    C2    C1   H12        180.00000
  166 Dihedral       C3    C2    C4    C5        180.00000
  167 Dihedral       C3    C2    C4    C6        180.00000
  168 Dihedral       C3    C2    C4    H9          0.00000
  169 Dihedral       C3    C2    C6    C4          0.00000
  170 Dihedral       C3    C2    C6    C5          0.00000
  171 Dihedral       C3    C2    C6   H11        180.00000
  172 Dihedral       C3    C4    C2    C6        180.00000
  173 Dihedral       C3    C4    C2    H7          0.00000
  174 Dihedral       C3    C4    C5    C6          0.00000
  175 Dihedral       C3    C4    C5   H10        180.00000
  176 Dihedral       C3    C4    C6    C5        180.00000
  177 Dihedral       C3    C4    C6   H11        180.00000
  178 Dihedral       C3    C5    C1    C6        180.00000
  179 Dihedral       C3    C5    C1   H12        180.00000
  180 Dihedral       C3    C5    C4    C6         -0.00000
  181 Dihedral       C3    C5    C4    H9        180.00000
  182 Dihedral       C3    C5    C6    C4          0.00000
  183 Dihedral       C3    C5    C6   H11        180.00000
  184 Dihedral       C4    C2    C1    C5          0.00000
  185 Dihedral       C4    C2    C1    C6          0.00000
  186 Dihedral       C4    C2    C1   H12        180.00000
  187 Dihedral       C4    C2    C3    C5          0.00000
  188 Dihedral       C4    C2    C3    H8        180.00000
  189 Dihedral       C4    C2    C6    C5         -0.00000
  190 Dihedral       C4    C2    C6   H11        180.00000
  191 Dihedral       C4    C3    C1    C5          0.00000
  192 Dihedral       C4    C3    C1    C6          0.00000
  193 Dihedral       C4    C3    C1   H12        180.00000
  194 Dihedral       C4    C3    C2    C6          0.00000
  195 Dihedral       C4    C3    C2    H7        180.00000
  196 Dihedral       C4    C3    C5    C6        180.00000
  197 Dihedral       C4    C3    C5   H10          0.00000
  198 Dihedral       C4    C5    C1    C6        180.00000
  199 Dihedral       C4    C5    C1   H12        180.00000
  200 Dihedral       C4    C5    C3    H8          0.00000
  201 Dihedral       C4    C5    C6   H11        180.00000
  202 Dihedral       C4    C6    C1    C5          0.00000
  203 Dihedral       C4    C6    C1   H12        180.00000
  204 Dihedral       C4    C6    C2    H7        180.00000
  205 Dihedral       C4    C6    C5   H10        180.00000
  206 Dihedral       C5    C1    C2    C6          0.00000
  207 Dihedral       C5    C1    C2    H7        180.00000
  208 Dihedral       C5    C1    C3    H8        180.00000
  209 Dihedral       C5    C1    C6   H11        180.00000
  210 Dihedral       C5    C3    C1    C6          0.00000
  211 Dihedral       C5    C3    C1   H12        180.00000
  212 Dihedral       C5    C3    C2    C6          0.00000
  213 Dihedral       C5    C3    C2    H7        180.00000
  214 Dihedral       C5    C3    C4    C6          0.00000
  215 Dihedral       C5    C3    C4    H9       -180.00000
  216 Dihedral       C5    C4    C2    C6         -0.00000
  217 Dihedral       C5    C4    C2    H7        180.00000
  218 Dihedral       C5    C4    C3    H8        180.00000
  219 Dihedral       C5    C4    C6   H11         -0.00000
  220 Dihedral       C5    C6    C1   H12        180.00000
  221 Dihedral       C5    C6    C2    H7        180.00000
  222 Dihedral       C5    C6    C4    H9          0.00000
  223 Dihedral       C6    C1    C2    H7        180.00000
  224 Dihedral       C6    C1    C3    H8        180.00000
  225 Dihedral       C6    C1    C5   H10          0.00000
  226 Dihedral       C6    C2    C1   H12        180.00000
  227 Dihedral       C6    C2    C3    H8        180.00000
  228 Dihedral       C6    C2    C4    H9       -180.00000
  229 Dihedral       C6    C4    C2    H7        180.00000
  230 Dihedral       C6    C4    C3    H8        180.00000
  231 Dihedral       C6    C4    C5   H10       -180.00000
  232 Dihedral       C6    C5    C1   H12         -0.00000
  233 Dihedral       C6    C5    C3    H8        180.00000
  234 Dihedral       C6    C5    C4    H9        180.00000
  235 Dihedral       H7    C2    C1   H12          0.00000
  236 Dihedral       H7    C2    C3    H8          0.00000
  237 Dihedral       H7    C2    C4    H9          0.00000
  238 Dihedral       H7    C2    C6   H11          0.00000
  239 Dihedral       H8    C3    C1   H12          0.00000
  240 Dihedral       H8    C3    C4    H9          0.00000
  241 Dihedral       H8    C3    C5   H10          0.00000
  242 Dihedral       H9    C4    C5   H10          0.00000
  243 Dihedral       H9    C4    C6   H11          0.00000
  244 Dihedral      H10    C5    C1   H12          0.00000
  245 Dihedral      H10    C5    C6   H11          0.00000
  246 Dihedral      H11    C6    C1   H12         -0.00000


  XYZ format geometry
  -------------------
12

C         0.116672     1.386737     0.000000
C        -1.142653     0.794417     0.000000
C        -1.259276    -0.592320     0.000000
C        -0.116677    -1.386736     0.000000
C         1.142653    -0.794422     0.000000
C         1.259279     0.592322     0.000000
H        -2.030701     1.411906     0.000000
H        -2.238045    -1.052703     0.000000
H        -0.207350    -2.464561     0.000000
H         2.030704    -1.411915     0.000000
H         2.238053     1.052708     0.000000
H         0.207341     2.464565     0.000000



 ---------------------------------
     Calculate Initial Energy     
 ---------------------------------

     ============ Grassmann conjugate gradient iteration ============
          >>> iteration started at Fri Apr 15 19:16:56 2022  <<<
     iter.                 Energy          DeltaE        DeltaRho
     ----------------------------------------------------------------
        - 10 steepest descent iterations performed
        10      -3.787926933000e+01   -8.071430e-08    1.546176e-10
     *** tolerance ok. iteration terminated
          >>> iteration ended at   Fri Apr 15 19:17:13 2022  <<<

     ==============  energy results (Molecule object)  ==============


 number of electrons: spin up=    15.00000  down=    15.00000 (real space)

 total     energy    :   -3.7879269330e+01 (   -3.15661e+00 /ion)
 total orbital energy:   -1.3056194132e+01 (   -8.70413e-01 /electron)
 hartree energy      :    8.3970840927e+01 (    5.59806e+00 /electron)
 exc-corr energy     :   -1.2625044966e+01 (   -8.41670e-01 /electron)
 ion-ion energy      :    5.5382814873e+01 (    4.61523e+00 /ion)

 kinetic (planewave) :    2.7661624745e+01 (    1.84411e+00 /electron)
 V_local (planewave) :   -1.9097399639e+02 (   -1.27316e+01 /electron)
 V_nl    (planewave) :   -1.2955085227e+00 (   -8.63672e-02 /electron)
 V_Coul  (planewave) :    1.6794168185e+02 (    1.11961e+01 /electron)
 V_xc    (planewave) :   -1.6389995822e+01 (   -1.09267e+00 /electron)
 Viral Coefficient   :   -1.4719966471e+00

 orbital energy:
    -2.2536987e-01 (  -6.133eV)
    -2.2538084e-01 (  -6.133eV)
    -2.9719273e-01 (  -8.087eV)
    -2.9722366e-01 (  -8.088eV)
    -3.2530898e-01 (  -8.852eV)
    -3.6937914e-01 ( -10.051eV)
    -3.6938183e-01 ( -10.051eV)
    -3.9529078e-01 ( -10.756eV)
    -4.0177151e-01 ( -10.933eV)
    -4.6701281e-01 ( -12.708eV)
    -5.3315373e-01 ( -14.508eV)
    -5.3316963e-01 ( -14.508eV)
    -6.6221592e-01 ( -18.020eV)
    -6.6223088e-01 ( -18.020eV)
    -7.6401474e-01 ( -20.790eV)


 ---------------------------------
    Calculate Initial Gradient    
 ---------------------------------

 ion forces (au):
     1    C  (    -0.000927    -0.009224     0.000000 )
     2    C  (     0.007475    -0.005254    -0.000000 )
     3    C  (     0.008586     0.003637    -0.000001 )
     4    C  (     0.000900     0.009226    -0.000000 )
     5    C  (    -0.007454     0.005286     0.000001 )
     6    C  (    -0.008573    -0.003669     0.000000 )
     7    H  (     0.004692    -0.003263     0.000000 )
     8    H  (     0.005175     0.002432    -0.000000 )
     9    H  (     0.000481     0.005689    -0.000000 )
    10    H  (    -0.004694     0.003265     0.000000 )
    11    H  (    -0.005179    -0.002433    -0.000000 )
    12    H  (    -0.000481    -0.005691     0.000000 )
      C.O.M. (     0.000001     0.000000     0.000000 )
   |F|/nion  =     0.002218
   max|Fatom|=     0.009325  (   0.480 eV/Angstrom)



@ Step             Energy     Delta E     Gmax     Grms     Xrms     Xmax   Walltime
@ ---- ------------------ ----------- -------- -------- -------- -------- ----------
@    0      -37.879269330  -3.788e+01  0.00933  0.00222  0.00067  0.00280       17.1        42
                                                              ok         


 -----------------------------------------------------------------------------------
 ----------------------------- Optimization Step     1 -----------------------------
 -----------------------------------------------------------------------------------

 ---------------------------------
  Geometry for Step 1
 ---------------------------------

 Number of Atoms = 12


 Units are Angstrom for bonds and degrees for angles

      Type          I     J     K     L     M      Value
      ----------- ----- ----- ----- ----- ----- ----------
    1 Stretch        C1    C2                      1.39019
    2 Stretch        C1    C3                      2.40784
    3 Stretch        C1    C5                      2.40789
    4 Stretch        C1    C6                      1.39013
    5 Stretch        C1   H12                      1.08220
    6 Stretch        C2    C3                      1.39021
    7 Stretch        C2    C4                      2.40788
    8 Stretch        C2    C6                      2.40786
    9 Stretch        C2    H7                      1.08217
   10 Stretch        C3    C4                      1.39012
   11 Stretch        C3    C5                      2.40786
   12 Stretch        C3    H8                      1.08221
   13 Stretch        C4    C5                      1.39020
   14 Stretch        C4    C6                      2.40784
   15 Stretch        C4    H9                      1.08220
   16 Stretch        C5    C6                      1.39021
   17 Stretch        C5   H10                      1.08218
   18 Stretch        C6   H11                      1.08221
   19 Bend           C2    C1    C3               30.00295
   20 Bend           C2    C1    C5               90.00285
   21 Bend           C2    C1    C6              120.00206
   22 Bend           C2    C1   H12              119.99945
   23 Bend           C3    C1    C5               59.99991
   24 Bend           C3    C1    C6               89.99912
   25 Bend           C3    C1   H12              150.00240
   26 Bend           C5    C1    C6               29.99921
   27 Bend           C5    C1   H12              149.99769
   28 Bend           C6    C1   H12              119.99848
   29 Bend           C1    C2    C3              119.99452
   30 Bend           C1    C2    C4               89.99741
   31 Bend           C1    C2    C6               29.99826
   32 Bend           C1    C2    H7              119.99776
   33 Bend           C3    C2    C4               29.99711
   34 Bend           C3    C2    C6               89.99626
   35 Bend           C3    C2    H7              120.00772
   36 Bend           C4    C2    C6               59.99915
   37 Bend           C4    C2    H7              150.00483
   38 Bend           C6    C2    H7              149.99602
   39 Bend           C1    C3    C2               30.00253
   40 Bend           C1    C3    C4               90.00107
   41 Bend           C1    C3    C5               60.00114
   42 Bend           C1    C3    H8              149.99519
   43 Bend           C2    C3    C4              120.00361
   44 Bend           C2    C3    C5               90.00367
   45 Bend           C2    C3    H8              119.99265
   46 Bend           C4    C3    C5               29.99994
   47 Bend           C4    C3    H8              120.00374
   48 Bend           C5    C3    H8              150.00368
   49 Bend           C2    C4    C3               29.99928
   50 Bend           C2    C4    C5               90.00286
   51 Bend           C2    C4    C6               59.99999
   52 Bend           C2    C4    H9              149.99797
   53 Bend           C3    C4    C5              120.00215
   54 Bend           C3    C4    C6               89.99927
   55 Bend           C3    C4    H9              119.99869
   56 Bend           C5    C4    C6               30.00288
   57 Bend           C5    C4    H9              119.99917
   58 Bend           C6    C4    H9              150.00205
   59 Bend           C1    C5    C3               59.99896
   60 Bend           C1    C5    C4               89.99687
   61 Bend           C1    C5    C6               29.99745
   62 Bend           C1    C5   H10              150.00549
   63 Bend           C3    C5    C4               29.99792
   64 Bend           C3    C5    C6               89.99641
   65 Bend           C3    C5   H10              149.99555
   66 Bend           C4    C5    C6              119.99433
   67 Bend           C4    C5   H10              119.99764
   68 Bend           C6    C5   H10              120.00804
   69 Bend           C1    C6    C2               29.99968
   70 Bend           C1    C6    C4               90.00054
   71 Bend           C1    C6    C5              120.00334
   72 Bend           C1    C6   H11              120.00361
   73 Bend           C2    C6    C4               60.00087
   74 Bend           C2    C6    C5               90.00366
   75 Bend           C2    C6   H11              150.00328
   76 Bend           C4    C6    C5               30.00280
   77 Bend           C4    C6   H11              149.99585
   78 Bend           C5    C6   H11              119.99305
   79 Dihedral       C1    C2    C3    C4          0.00000
   80 Dihedral       C1    C2    C3    C5          0.00000
   81 Dihedral       C1    C2    C3    H8        179.99999
   82 Dihedral       C1    C2    C4    C3       -180.00000
   83 Dihedral       C1    C2    C4    C5         -0.00000
   84 Dihedral       C1    C2    C4    C6         -0.00000
   85 Dihedral       C1    C2    C4    H9        180.00000
   86 Dihedral       C1    C2    C6    C4        180.00000
   87 Dihedral       C1    C2    C6    C5        180.00000
   88 Dihedral       C1    C2    C6   H11         -0.00002
   89 Dihedral       C1    C3    C2    C4         -0.00000
   90 Dihedral       C1    C3    C2    C6          0.00000
   91 Dihedral       C1    C3    C2    H7       -179.99999
   92 Dihedral       C1    C3    C4    C2          0.00000
   93 Dihedral       C1    C3    C4    C5         -0.00000
   94 Dihedral       C1    C3    C4    C6         -0.00000
   95 Dihedral       C1    C3    C4    H9        180.00000
   96 Dihedral       C1    C3    C5    C4        180.00000
   97 Dihedral       C1    C3    C5    C6         -0.00000
   98 Dihedral       C1    C3    C5   H10       -179.99999
   99 Dihedral       C1    C5    C3    C2         -0.00000
  100 Dihedral       C1    C5    C3    C4       -180.00000
  101 Dihedral       C1    C5    C3    H8       -179.99998
  102 Dihedral       C1    C5    C4    C2          0.00000
  103 Dihedral       C1    C5    C4    C3          0.00000
  104 Dihedral       C1    C5    C4    C6          0.00000
  105 Dihedral       C1    C5    C4    H9       -180.00000
  106 Dihedral       C1    C5    C6    C2         -0.00000
  107 Dihedral       C1    C5    C6    C4         -0.00000
  108 Dihedral       C1    C5    C6   H11       -179.99999
  109 Dihedral       C1    C6    C2    C3       -180.00000
  110 Dihedral       C1    C6    C2    C4       -180.00000
  111 Dihedral       C1    C6    C2    H7         -0.00001
  112 Dihedral       C1    C6    C4    C2          0.00000
  113 Dihedral       C1    C6    C4    C3          0.00000
  114 Dihedral       C1    C6    C4    C5       -180.00000
  115 Dihedral       C1    C6    C4    H9       -180.00000
  116 Dihedral       C1    C6    C5    C3          0.00000
  117 Dihedral       C1    C6    C5    C4          0.00000
  118 Dihedral       C1    C6    C5   H10        179.99999
  119 Dihedral       C2    C1    C3    C4       -180.00000
  120 Dihedral       C2    C1    C3    C5       -180.00000
  121 Dihedral       C2    C1    C3    H8         -0.00002
  122 Dihedral       C2    C1    C5    C3          0.00000
  123 Dihedral       C2    C1    C5    C4         -0.00000
  124 Dihedral       C2    C1    C5    C6        180.00000
  125 Dihedral       C2    C1    C5   H10        179.99999
  126 Dihedral       C2    C1    C6    C4         -0.00000
  127 Dihedral       C2    C1    C6    C5         -0.00000
  128 Dihedral       C2    C1    C6   H11        179.99999
  129 Dihedral       C2    C3    C1    C5        180.00000
  130 Dihedral       C2    C3    C1    C6       -180.00000
  131 Dihedral       C2    C3    C1   H12         -0.00001
  132 Dihedral       C2    C3    C4    C5         -0.00000
  133 Dihedral       C2    C3    C4    C6         -0.00000
  134 Dihedral       C2    C3    C4    H9        180.00000
  135 Dihedral       C2    C3    C5    C4        180.00000
  136 Dihedral       C2    C3    C5    C6         -0.00000
  137 Dihedral       C2    C3    C5   H10       -179.99999
  138 Dihedral       C2    C4    C3    C5          0.00000
  139 Dihedral       C2    C4    C3    H8       -179.99999
  140 Dihedral       C2    C4    C5    C3         -0.00000
  141 Dihedral       C2    C4    C5    C6         -0.00000
  142 Dihedral       C2    C4    C5   H10       -179.99999
  143 Dihedral       C2    C4    C6    C5        180.00000
  144 Dihedral       C2    C4    C6   H11       -179.99998
  145 Dihedral       C2    C6    C1    C3          0.00000
  146 Dihedral       C2    C6    C1    C5          0.00000
  147 Dihedral       C2    C6    C1   H12       -179.99999
  148 Dihedral       C2    C6    C4    C3          0.00000
  149 Dihedral       C2    C6    C4    C5       -180.00000
  150 Dihedral       C2    C6    C4    H9       -180.00000
  151 Dihedral       C2    C6    C5    C3          0.00000
  152 Dihedral       C2    C6    C5    C4          0.00000
  153 Dihedral       C2    C6    C5   H10        179.99999
  154 Dihedral       C3    C1    C2    C4          0.00000
  155 Dihedral       C3    C1    C2    C6         -0.00000
  156 Dihedral       C3    C1    C2    H7        179.99999
  157 Dihedral       C3    C1    C5    C4         -0.00000
  158 Dihedral       C3    C1    C5    C6        180.00000
  159 Dihedral       C3    C1    C5   H10        179.99999
  160 Dihedral       C3    C1    C6    C4         -0.00000
  161 Dihedral       C3    C1    C6    C5         -0.00000
  162 Dihedral       C3    C1    C6   H11        179.99999
  163 Dihedral       C3    C2    C1    C5         -0.00000
  164 Dihedral       C3    C2    C1    C6          0.00000
  165 Dihedral       C3    C2    C1   H12        180.00000
  166 Dihedral       C3    C2    C4    C5        180.00000
  167 Dihedral       C3    C2    C4    C6        180.00000
  168 Dihedral       C3    C2    C4    H9         -0.00001
  169 Dihedral       C3    C2    C6    C4         -0.00000
  170 Dihedral       C3    C2    C6    C5         -0.00000
  171 Dihedral       C3    C2    C6   H11        179.99998
  172 Dihedral       C3    C4    C2    C6       -180.00000
  173 Dihedral       C3    C4    C2    H7          0.00001
  174 Dihedral       C3    C4    C5    C6         -0.00000
  175 Dihedral       C3    C4    C5   H10       -179.99999
  176 Dihedral       C3    C4    C6    C5        180.00000
  177 Dihedral       C3    C4    C6   H11       -179.99998
  178 Dihedral       C3    C5    C1    C6       -180.00000
  179 Dihedral       C3    C5    C1   H12       -179.99999
  180 Dihedral       C3    C5    C4    C6          0.00000
  181 Dihedral       C3    C5    C4    H9       -180.00000
  182 Dihedral       C3    C5    C6    C4         -0.00000
  183 Dihedral       C3    C5    C6   H11       -179.99999
  184 Dihedral       C4    C2    C1    C5          0.00000
  185 Dihedral       C4    C2    C1    C6          0.00000
  186 Dihedral       C4    C2    C1   H12        180.00000
  187 Dihedral       C4    C2    C3    C5         -0.00000
  188 Dihedral       C4    C2    C3    H8        179.99999
  189 Dihedral       C4    C2    C6    C5         -0.00000
  190 Dihedral       C4    C2    C6   H11        179.99998
  191 Dihedral       C4    C3    C1    C5          0.00000
  192 Dihedral       C4    C3    C1    C6          0.00000
  193 Dihedral       C4    C3    C1   H12        179.99999
  194 Dihedral       C4    C3    C2    C6          0.00000
  195 Dihedral       C4    C3    C2    H7       -179.99999
  196 Dihedral       C4    C3    C5    C6        180.00000
  197 Dihedral       C4    C3    C5   H10          0.00002
  198 Dihedral       C4    C5    C1    C6       -180.00000
  199 Dihedral       C4    C5    C1   H12       -179.99999
  200 Dihedral       C4    C5    C3    H8          0.00002
  201 Dihedral       C4    C5    C6   H11       -179.99999
  202 Dihedral       C4    C6    C1    C5          0.00000
  203 Dihedral       C4    C6    C1   H12       -180.00000
  204 Dihedral       C4    C6    C2    H7        179.99999
  205 Dihedral       C4    C6    C5   H10        179.99999
  206 Dihedral       C5    C1    C2    C6         -0.00000
  207 Dihedral       C5    C1    C2    H7        179.99999
  208 Dihedral       C5    C1    C3    H8        179.99998
  209 Dihedral       C5    C1    C6   H11        179.99999
  210 Dihedral       C5    C3    C1    C6          0.00000
  211 Dihedral       C5    C3    C1   H12        179.99999
  212 Dihedral       C5    C3    C2    C6          0.00000
  213 Dihedral       C5    C3    C2    H7       -179.99999
  214 Dihedral       C5    C3    C4    C6         -0.00000
  215 Dihedral       C5    C3    C4    H9        180.00000
  216 Dihedral       C5    C4    C2    C6          0.00000
  217 Dihedral       C5    C4    C2    H7       -179.99999
  218 Dihedral       C5    C4    C3    H8       -179.99999
  219 Dihedral       C5    C4    C6   H11          0.00002
  220 Dihedral       C5    C6    C1   H12       -180.00000
  221 Dihedral       C5    C6    C2    H7        179.99999
  222 Dihedral       C5    C6    C4    H9          0.00000
  223 Dihedral       C6    C1    C2    H7        179.99999
  224 Dihedral       C6    C1    C3    H8        179.99998
  225 Dihedral       C6    C1    C5   H10         -0.00001
  226 Dihedral       C6    C2    C1   H12        179.99999
  227 Dihedral       C6    C2    C3    H8        179.99999
  228 Dihedral       C6    C2    C4    H9        180.00000
  229 Dihedral       C6    C4    C2    H7       -179.99999
  230 Dihedral       C6    C4    C3    H8       -179.99999
  231 Dihedral       C6    C4    C5   H10       -179.99999
  232 Dihedral       C6    C5    C1   H12          0.00000
  233 Dihedral       C6    C5    C3    H8       -179.99998
  234 Dihedral       C6    C5    C4    H9       -180.00000
  235 Dihedral       H7    C2    C1   H12         -0.00001
  236 Dihedral       H7    C2    C3    H8         -0.00000
  237 Dihedral       H7    C2    C4    H9          0.00001
  238 Dihedral       H7    C2    C6   H11         -0.00003
  239 Dihedral       H8    C3    C1   H12         -0.00003
  240 Dihedral       H8    C3    C4    H9          0.00001
  241 Dihedral       H8    C3    C5   H10          0.00003
  242 Dihedral       H9    C4    C5   H10          0.00001
  243 Dihedral       H9    C4    C6   H11          0.00002
  244 Dihedral      H10    C5    C1   H12         -0.00001
  245 Dihedral      H10    C5    C6   H11          0.00000
  246 Dihedral      H11    C6    C1   H12         -0.00000


  XYZ format geometry
  -------------------
12

C         0.116525     1.385273     0.000000
C        -1.141467     0.793583    -0.000000
C        -1.257913    -0.591743    -0.000000
C        -0.116534    -1.385271    -0.000000
C         1.141470    -0.793583     0.000000
C         1.257918     0.591740     0.000000
H        -2.029956     1.411388     0.000000
H        -2.237223    -1.052317    -0.000000
H        -0.207274    -2.463658    -0.000000
H         2.029959    -1.411396     0.000000
H         2.237231     1.052322    -0.000000
H         0.207265     2.463661     0.000000



 ---------------------------------
  Calculate Energy for Step 1
 ---------------------------------

     ============ Grassmann conjugate gradient iteration ============
          >>> iteration started at Fri Apr 15 19:17:13 2022  <<<
     iter.                 Energy          DeltaE        DeltaRho
     ----------------------------------------------------------------
        - 10 steepest descent iterations performed
        10      -3.787947022873e+01   -1.059488e-07    1.191645e-10
        20      -3.787947026930e+01   -4.056895e-08    1.216325e-11
     *** tolerance ok. iteration terminated
          >>> iteration ended at   Fri Apr 15 19:17:31 2022  <<<

     ==============  energy results (Molecule object)  ==============


 number of electrons: spin up=    15.00000  down=    15.00000 (real space)

 total     energy    :   -3.7879470269e+01 (   -3.15662e+00 /ion)
 total orbital energy:   -1.3059358933e+01 (   -8.70624e-01 /electron)
 hartree energy      :    8.4043680365e+01 (    5.60291e+00 /electron)
 exc-corr energy     :   -1.2628660193e+01 (   -8.41911e-01 /electron)
 ion-ion energy      :    5.5457455589e+01 (    4.62145e+00 /ion)

 kinetic (planewave) :    2.7676217104e+01 (    1.84508e+00 /electron)
 V_local (planewave) :   -1.9113146969e+02 (   -1.27421e+01 /electron)
 V_nl    (planewave) :   -1.2966934451e+00 (   -8.64462e-02 /electron)
 V_Coul  (planewave) :    1.6808736073e+02 (    1.12058e+01 /electron)
 V_xc    (planewave) :   -1.6394773633e+01 (   -1.09298e+00 /electron)
 Viral Coefficient   :   -1.4718621365e+00

 orbital energy:
    -2.2550980e-01 (  -6.136eV)
    -2.2552319e-01 (  -6.137eV)
    -2.9703374e-01 (  -8.083eV)
    -2.9707644e-01 (  -8.084eV)
    -3.2573706e-01 (  -8.864eV)
    -3.6936825e-01 ( -10.051eV)
    -3.6937550e-01 ( -10.051eV)
    -3.9564370e-01 ( -10.766eV)
    -4.0127887e-01 ( -10.919eV)
    -4.6720620e-01 ( -12.713eV)
    -5.3318485e-01 ( -14.509eV)
    -5.3319725e-01 ( -14.509eV)
    -6.6244844e-01 ( -18.026eV)
    -6.6245660e-01 ( -18.027eV)
    -7.6463957e-01 ( -20.807eV)


 ---------------------------------
  Calculate Gradient for Step 1
 ---------------------------------

 ion forces (au):
     1    C  (    -0.000776    -0.007581     0.000000 )
     2    C  (     0.006175    -0.004379    -0.000000 )
     3    C  (     0.007073     0.003043    -0.000000 )
     4    C  (     0.000770     0.007582    -0.000000 )
     5    C  (    -0.006167     0.004390     0.000000 )
     6    C  (    -0.007070    -0.003054     0.000000 )
     7    H  (     0.004931    -0.003431    -0.000000 )
     8    H  (     0.005460     0.002560    -0.000000 )
     9    H  (     0.000508     0.005998    -0.000000 )
    10    H  (    -0.004933     0.003433     0.000000 )
    11    H  (    -0.005463    -0.002561    -0.000000 )
    12    H  (    -0.000508    -0.005999     0.000000 )
      C.O.M. (     0.000001     0.000000     0.000000 )
   |F|/nion  =     0.001984
   max|Fatom|=     0.007701  (   0.396 eV/Angstrom)



  Step             Energy     Delta E     Gmax     Grms     Xrms     Xmax   Walltime
  ---- ------------------ ----------- -------- -------- -------- -------- ----------
@    1      -37.879470269  -2.009e-04  0.00770  0.00198  0.00060  0.00231       35.6        88
                                                              ok         


 -----------------------------------------------------------------------------------
 ----------------------------- Optimization Step     2 -----------------------------
 -----------------------------------------------------------------------------------

 ---------------------------------
  Geometry for Step 2
 ---------------------------------

 Number of Atoms = 12


 Units are Angstrom for bonds and degrees for angles

      Type          I     J     K     L     M      Value
      ----------- ----- ----- ----- ----- ----- ----------
    1 Stretch        C1    C2                      1.38898
    2 Stretch        C1    C3                      2.40574
    3 Stretch        C1    C5                      2.40580
    4 Stretch        C1    C6                      1.38890
    5 Stretch        C1   H12                      1.08245
    6 Stretch        C2    C3                      1.38903
    7 Stretch        C2    C4                      2.40580
    8 Stretch        C2    C6                      2.40575
    9 Stretch        C2    H7                      1.08242
   10 Stretch        C3    C4                      1.38889
   11 Stretch        C3    C5                      2.40575
   12 Stretch        C3    H8                      1.08247
   13 Stretch        C4    C5                      1.38899
   14 Stretch        C4    C6                      2.40574
   15 Stretch        C4    H9                      1.08245
   16 Stretch        C5    C6                      1.38902
   17 Stretch        C5   H10                      1.08242
   18 Stretch        C6   H11                      1.08248
   19 Bend           C2    C1    C3               30.00399
   20 Bend           C2    C1    C5               90.00328
   21 Bend           C2    C1    C6              120.00249
   22 Bend           C2    C1   H12              120.00097
   23 Bend           C3    C1    C5               59.99929
   24 Bend           C3    C1    C6               89.99850
   25 Bend           C3    C1   H12              150.00497
   26 Bend           C5    C1    C6               29.99921
   27 Bend           C5    C1   H12              149.99574
   28 Bend           C6    C1   H12              119.99654
   29 Bend           C1    C2    C3              119.99312
   30 Bend           C1    C2    C4               89.99704
   31 Bend           C1    C2    C6               29.99786
   32 Bend           C1    C2    H7              119.99680
   33 Bend           C3    C2    C4               29.99608
   34 Bend           C3    C2    C6               89.99526
   35 Bend           C3    C2    H7              120.01008
   36 Bend           C4    C2    C6               59.99918
   37 Bend           C4    C2    H7              150.00616
   38 Bend           C6    C2    H7              149.99466
   39 Bend           C1    C3    C2               30.00289
   40 Bend           C1    C3    C4               90.00167
   41 Bend           C1    C3    C5               60.00169
   42 Bend           C1    C3    H8              149.99165
   43 Bend           C2    C3    C4              120.00456
   44 Bend           C2    C3    C5               90.00458
   45 Bend           C2    C3    H8              119.98876
   46 Bend           C4    C3    C5               29.99997
   47 Bend           C4    C3    H8              120.00668
   48 Bend           C5    C3    H8              150.00666
   49 Bend           C2    C4    C3               29.99937
   50 Bend           C2    C4    C5               90.00320
   51 Bend           C2    C4    C6               59.99936
   52 Bend           C2    C4    H9              149.99613
   53 Bend           C3    C4    C5              120.00256
   54 Bend           C3    C4    C6               89.99873
   55 Bend           C3    C4    H9              119.99676
   56 Bend           C5    C4    C6               30.00384
   57 Bend           C5    C4    H9              120.00068
   58 Bend           C6    C4    H9              150.00451
   59 Bend           C1    C5    C3               59.99902
   60 Bend           C1    C5    C4               89.99648
   61 Bend           C1    C5    C6               29.99647
   62 Bend           C1    C5   H10              150.00699
   63 Bend           C3    C5    C4               29.99746
   64 Bend           C3    C5    C6               89.99548
   65 Bend           C3    C5   H10              149.99399
   66 Bend           C4    C5    C6              119.99295
   67 Bend           C4    C5   H10              119.99653
   68 Bend           C6    C5   H10              120.01053
   69 Bend           C1    C6    C2               29.99965
   70 Bend           C1    C6    C4               90.00111
   71 Bend           C1    C6    C5              120.00433
   72 Bend           C1    C6   H11              120.00643
   73 Bend           C2    C6    C4               60.00146
   74 Bend           C2    C6    C5               90.00467
   75 Bend           C2    C6   H11              150.00609
   76 Bend           C4    C6    C5               30.00322
   77 Bend           C4    C6   H11              149.99246
   78 Bend           C5    C6   H11              119.98924
   79 Dihedral       C1    C2    C3    C4          0.00000
   80 Dihedral       C1    C2    C3    C5          0.00000
   81 Dihedral       C1    C2    C3    H8        179.99998
   82 Dihedral       C1    C2    C4    C3       -180.00000
   83 Dihedral       C1    C2    C4    C5         -0.00000
   84 Dihedral       C1    C2    C4    C6         -0.00000
   85 Dihedral       C1    C2    C4    H9        179.99999
   86 Dihedral       C1    C2    C6    C4        180.00000
   87 Dihedral       C1    C2    C6    C5        180.00000
   88 Dihedral       C1    C2    C6   H11         -0.00003
   89 Dihedral       C1    C3    C2    C4         -0.00000
   90 Dihedral       C1    C3    C2    C6          0.00000
   91 Dihedral       C1    C3    C2    H7       -179.99999
   92 Dihedral       C1    C3    C4    C2          0.00000
   93 Dihedral       C1    C3    C4    C5         -0.00000
   94 Dihedral       C1    C3    C4    C6         -0.00000
   95 Dihedral       C1    C3    C4    H9        180.00000
   96 Dihedral       C1    C3    C5    C4        180.00000
   97 Dihedral       C1    C3    C5    C6         -0.00000
   98 Dihedral       C1    C3    C5   H10       -179.99998
   99 Dihedral       C1    C5    C3    C2         -0.00000
  100 Dihedral       C1    C5    C3    C4       -180.00000
  101 Dihedral       C1    C5    C3    H8       -179.99997
  102 Dihedral       C1    C5    C4    C2          0.00000
  103 Dihedral       C1    C5    C4    C3          0.00000
  104 Dihedral       C1    C5    C4    C6          0.00000
  105 Dihedral       C1    C5    C4    H9       -180.00000
  106 Dihedral       C1    C5    C6    C2         -0.00000
  107 Dihedral       C1    C5    C6    C4         -0.00001
  108 Dihedral       C1    C5    C6   H11       -179.99999
  109 Dihedral       C1    C6    C2    C3       -180.00000
  110 Dihedral       C1    C6    C2    C4       -180.00000
  111 Dihedral       C1    C6    C2    H7         -0.00001
  112 Dihedral       C1    C6    C4    C2          0.00000
  113 Dihedral       C1    C6    C4    C3          0.00000
  114 Dihedral       C1    C6    C4    C5       -180.00000
  115 Dihedral       C1    C6    C4    H9       -179.99999
  116 Dihedral       C1    C6    C5    C3          0.00000
  117 Dihedral       C1    C6    C5    C4          0.00001
  118 Dihedral       C1    C6    C5   H10        179.99999
  119 Dihedral       C2    C1    C3    C4       -180.00000
  120 Dihedral       C2    C1    C3    C5       -180.00000
  121 Dihedral       C2    C1    C3    H8         -0.00003
  122 Dihedral       C2    C1    C5    C3          0.00000
  123 Dihedral       C2    C1    C5    C4         -0.00000
  124 Dihedral       C2    C1    C5    C6        180.00000
  125 Dihedral       C2    C1    C5   H10        179.99998
  126 Dihedral       C2    C1    C6    C4         -0.00000
  127 Dihedral       C2    C1    C6    C5         -0.00001
  128 Dihedral       C2    C1    C6   H11        179.99998
  129 Dihedral       C2    C3    C1    C5        180.00000
  130 Dihedral       C2    C3    C1    C6       -180.00000
  131 Dihedral       C2    C3    C1   H12         -0.00001
  132 Dihedral       C2    C3    C4    C5         -0.00000
  133 Dihedral       C2    C3    C4    C6         -0.00000
  134 Dihedral       C2    C3    C4    H9        179.99999
  135 Dihedral       C2    C3    C5    C4        180.00000
  136 Dihedral       C2    C3    C5    C6         -0.00000
  137 Dihedral       C2    C3    C5   H10       -179.99998
  138 Dihedral       C2    C4    C3    C5          0.00000
  139 Dihedral       C2    C4    C3    H8       -179.99998
  140 Dihedral       C2    C4    C5    C3         -0.00000
  141 Dihedral       C2    C4    C5    C6         -0.00000
  142 Dihedral       C2    C4    C5   H10       -179.99999
  143 Dihedral       C2    C4    C6    C5        180.00000
[...]
   max|Fatom|=     0.000410  (   0.021 eV/Angstrom)

      ----------------------
      Optimization converged
      ----------------------


  Step             Energy     Delta E     Gmax     Grms     Xrms     Xmax   Walltime
  ---- ------------------ ----------- -------- -------- -------- -------- ----------
@   13      -37.880935871  -1.684e-06  0.00041  0.00009  0.00009  0.00042      256.2       606
                                            ok       ok       ok       ok


 ---------------------------------
  Final Geometry 
 ---------------------------------

 Number of Atoms = 12


 Units are Angstrom for bonds and degrees for angles

      Type          I     J     K     L     M      Value
      ----------- ----- ----- ----- ----- ----- ----------
    1 Stretch        C1    C2                      1.37559
    2 Stretch        C1    C3                      2.38252
    3 Stretch        C1    C5                      2.38295
    4 Stretch        C1    C6                      1.37558
    5 Stretch        C1   H12                      1.07324
    6 Stretch        C2    C3                      1.37570
    7 Stretch        C2    C4                      2.38295
    8 Stretch        C2    C6                      2.38248
    9 Stretch        C2    H7                      1.07325
   10 Stretch        C3    C4                      1.37558
   11 Stretch        C3    C5                      2.38248
   12 Stretch        C3    H8                      1.07331
   13 Stretch        C4    C5                      1.37559
   14 Stretch        C4    C6                      2.38252
   15 Stretch        C4    H9                      1.07324
   16 Stretch        C5    C6                      1.37569
   17 Stretch        C5   H10                      1.07325
   18 Stretch        C6   H11                      1.07331
   19 Bend           C2    C1    C3               30.00833
   20 Bend           C2    C1    C5               90.00141
   21 Bend           C2    C1    C6              119.99139
   22 Bend           C2    C1   H12              120.02436
   23 Bend           C3    C1    C5               59.99308
   24 Bend           C3    C1    C6               89.98306
   25 Bend           C3    C1   H12              150.03269
   26 Bend           C5    C1    C6               29.98998
   27 Bend           C5    C1   H12              149.97423
   28 Bend           C6    C1   H12              119.98425
   29 Bend           C1    C2    C3              119.98587
   30 Bend           C1    C2    C4               89.99864
   31 Bend           C1    C2    C6               30.00420
   32 Bend           C1    C2    H7              119.98377
   33 Bend           C3    C2    C4               29.98724
   34 Bend           C3    C2    C6               89.98167
   35 Bend           C3    C2    H7              120.03036
   36 Bend           C4    C2    C6               59.99443
   37 Bend           C4    C2    H7              150.01759
   38 Bend           C6    C2    H7              149.98798
   39 Bend           C1    C3    C2               30.00580
   40 Bend           C1    C3    C4               90.01695
   41 Bend           C1    C3    C5               60.01250
   42 Bend           C1    C3    H8              149.97085
   43 Bend           C2    C3    C4              120.02275
   44 Bend           C2    C3    C5               90.01830
   45 Bend           C2    C3    H8              119.96506
   46 Bend           C4    C3    C5               30.00445
   47 Bend           C4    C3    H8              120.01219
   48 Bend           C5    C3    H8              150.01664
   49 Bend           C2    C4    C3               29.99002
   50 Bend           C2    C4    C5               90.00138
   51 Bend           C2    C4    C6               59.99308
   52 Bend           C2    C4    H9              149.97395
   53 Bend           C3    C4    C5              119.99140
   54 Bend           C3    C4    C6               89.98310
   55 Bend           C3    C4    H9              119.98393
   56 Bend           C5    C4    C6               30.00830
   57 Bend           C5    C4    H9              120.02468
   58 Bend           C6    C4    H9              150.03297
   59 Bend           C1    C5    C3               59.99442
   60 Bend           C1    C5    C4               89.99857
   61 Bend           C1    C5    C6               29.98728
   62 Bend           C1    C5   H10              150.01786
   63 Bend           C3    C5    C4               30.00415
   64 Bend           C3    C5    C6               89.98170
   65 Bend           C3    C5   H10              149.98772
   66 Bend           C4    C5    C6              119.98585
   67 Bend           C4    C5   H10              119.98357
   68 Bend           C6    C5   H10              120.03058
   69 Bend           C1    C6    C2               30.00441
   70 Bend           C1    C6    C4               90.01689
   71 Bend           C1    C6    C5              120.02274
   72 Bend           C1    C6   H11              120.01212
   73 Bend           C2    C6    C4               60.01249
   74 Bend           C2    C6    C5               90.01834
   75 Bend           C2    C6   H11              150.01652
   76 Bend           C4    C6    C5               30.00585
   77 Bend           C4    C6   H11              149.97099
   78 Bend           C5    C6   H11              119.96514
   79 Dihedral       C1    C2    C3    C4          0.00000
   80 Dihedral       C1    C2    C3    C5          0.00000
   81 Dihedral       C1    C2    C3    H8        179.99996
   82 Dihedral       C1    C2    C4    C3       -180.00000
   83 Dihedral       C1    C2    C4    C5         -0.00000
   84 Dihedral       C1    C2    C4    C6         -0.00000
   85 Dihedral       C1    C2    C4    H9        179.99998
   86 Dihedral       C1    C2    C6    C4        180.00000
   87 Dihedral       C1    C2    C6    C5        179.99999
   88 Dihedral       C1    C2    C6   H11         -0.00007
   89 Dihedral       C1    C3    C2    C4         -0.00000
   90 Dihedral       C1    C3    C2    C6          0.00000
   91 Dihedral       C1    C3    C2    H7       -179.99998
   92 Dihedral       C1    C3    C4    C2          0.00000
   93 Dihedral       C1    C3    C4    C5         -0.00000
   94 Dihedral       C1    C3    C4    C6         -0.00000
   95 Dihedral       C1    C3    C4    H9        179.99999
   96 Dihedral       C1    C3    C5    C4        180.00000
   97 Dihedral       C1    C3    C5    C6         -0.00000
   98 Dihedral       C1    C3    C5   H10       -179.99996
   99 Dihedral       C1    C5    C3    C2         -0.00000
  100 Dihedral       C1    C5    C3    C4       -180.00000
  101 Dihedral       C1    C5    C3    H8       -179.99994
  102 Dihedral       C1    C5    C4    C2          0.00000
  103 Dihedral       C1    C5    C4    C3          0.00000
  104 Dihedral       C1    C5    C4    C6          0.00000
  105 Dihedral       C1    C5    C4    H9       -179.99999
  106 Dihedral       C1    C5    C6    C2         -0.00000
  107 Dihedral       C1    C5    C6    C4         -0.00001
  108 Dihedral       C1    C5    C6   H11       -179.99997
  109 Dihedral       C1    C6    C2    C3       -180.00000
  110 Dihedral       C1    C6    C2    C4       -180.00000
  111 Dihedral       C1    C6    C2    H7         -0.00004
  112 Dihedral       C1    C6    C4    C2          0.00000
  113 Dihedral       C1    C6    C4    C3          0.00001
  114 Dihedral       C1    C6    C4    C5       -179.99999
  115 Dihedral       C1    C6    C4    H9       -179.99998
  116 Dihedral       C1    C6    C5    C3          0.00001
  117 Dihedral       C1    C6    C5    C4          0.00001
  118 Dihedral       C1    C6    C5   H10        179.99998
  119 Dihedral       C2    C1    C3    C4       -180.00000
  120 Dihedral       C2    C1    C3    C5       -180.00000
  121 Dihedral       C2    C1    C3    H8         -0.00006
  122 Dihedral       C2    C1    C5    C3          0.00000
  123 Dihedral       C2    C1    C5    C4         -0.00000
  124 Dihedral       C2    C1    C5    C6        179.99999
  125 Dihedral       C2    C1    C5   H10        179.99996
  126 Dihedral       C2    C1    C6    C4         -0.00000
  127 Dihedral       C2    C1    C6    C5         -0.00001
  128 Dihedral       C2    C1    C6   H11        179.99996
  129 Dihedral       C2    C3    C1    C5        180.00000
  130 Dihedral       C2    C3    C1    C6       -180.00000
  131 Dihedral       C2    C3    C1   H12         -0.00003
  132 Dihedral       C2    C3    C4    C5         -0.00001
  133 Dihedral       C2    C3    C4    C6         -0.00001
  134 Dihedral       C2    C3    C4    H9        179.99999
  135 Dihedral       C2    C3    C5    C4        180.00000
  136 Dihedral       C2    C3    C5    C6         -0.00000
  137 Dihedral       C2    C3    C5   H10       -179.99996
  138 Dihedral       C2    C4    C3    C5          0.00001
  139 Dihedral       C2    C4    C3    H8       -179.99996
  140 Dihedral       C2    C4    C5    C3         -0.00000
  141 Dihedral       C2    C4    C5    C6         -0.00000
  142 Dihedral       C2    C4    C5   H10       -179.99998
  143 Dihedral       C2    C4    C6    C5        180.00000
  144 Dihedral       C2    C4    C6   H11       -179.99994
  145 Dihedral       C2    C6    C1    C3          0.00000
  146 Dihedral       C2    C6    C1    C5          0.00001
  147 Dihedral       C2    C6    C1   H12       -179.99998
  148 Dihedral       C2    C6    C4    C3          0.00000
  149 Dihedral       C2    C6    C4    C5       -180.00000
  150 Dihedral       C2    C6    C4    H9       -179.99998
  151 Dihedral       C2    C6    C5    C3          0.00000
  152 Dihedral       C2    C6    C5    C4          0.00000
  153 Dihedral       C2    C6    C5   H10        179.99998
  154 Dihedral       C3    C1    C2    C4          0.00000
  155 Dihedral       C3    C1    C2    C6         -0.00000
  156 Dihedral       C3    C1    C2    H7        179.99998
  157 Dihedral       C3    C1    C5    C4         -0.00000
  158 Dihedral       C3    C1    C5    C6        179.99999
  159 Dihedral       C3    C1    C5   H10        179.99996
  160 Dihedral       C3    C1    C6    C4         -0.00000
  161 Dihedral       C3    C1    C6    C5         -0.00001
  162 Dihedral       C3    C1    C6   H11        179.99996
  163 Dihedral       C3    C2    C1    C5         -0.00000
  164 Dihedral       C3    C2    C1    C6          0.00000
  165 Dihedral       C3    C2    C1   H12        179.99998
  166 Dihedral       C3    C2    C4    C5        180.00000
  167 Dihedral       C3    C2    C4    C6        179.99999
  168 Dihedral       C3    C2    C4    H9         -0.00002
  169 Dihedral       C3    C2    C6    C4         -0.00000
  170 Dihedral       C3    C2    C6    C5         -0.00000
  171 Dihedral       C3    C2    C6   H11        179.99993
  172 Dihedral       C3    C4    C2    C6       -179.99999
  173 Dihedral       C3    C4    C2    H7          0.00005
  174 Dihedral       C3    C4    C5    C6         -0.00000
  175 Dihedral       C3    C4    C5   H10       -179.99997
  176 Dihedral       C3    C4    C6    C5        180.00000
  177 Dihedral       C3    C4    C6   H11       -179.99993
  178 Dihedral       C3    C5    C1    C6       -179.99999
  179 Dihedral       C3    C5    C1   H12       -179.99998
  180 Dihedral       C3    C5    C4    C6          0.00000
  181 Dihedral       C3    C5    C4    H9       -179.99999
  182 Dihedral       C3    C5    C6    C4         -0.00000
  183 Dihedral       C3    C5    C6   H11       -179.99996
  184 Dihedral       C4    C2    C1    C5          0.00000
  185 Dihedral       C4    C2    C1    C6          0.00000
  186 Dihedral       C4    C2    C1   H12        179.99999
  187 Dihedral       C4    C2    C3    C5         -0.00000
  188 Dihedral       C4    C2    C3    H8        179.99996
  189 Dihedral       C4    C2    C6    C5         -0.00000
  190 Dihedral       C4    C2    C6   H11        179.99994
  191 Dihedral       C4    C3    C1    C5          0.00000
  192 Dihedral       C4    C3    C1    C6          0.00001
  193 Dihedral       C4    C3    C1   H12        179.99998
  194 Dihedral       C4    C3    C2    C6          0.00001
  195 Dihedral       C4    C3    C2    H7       -179.99997
  196 Dihedral       C4    C3    C5    C6        180.00000
  197 Dihedral       C4    C3    C5   H10          0.00005
  198 Dihedral       C4    C5    C1    C6       -179.99999
  199 Dihedral       C4    C5    C1   H12       -179.99998
  200 Dihedral       C4    C5    C3    H8          0.00006
  201 Dihedral       C4    C5    C6   H11       -179.99996
  202 Dihedral       C4    C6    C1    C5          0.00000
  203 Dihedral       C4    C6    C1   H12       -179.99999
  204 Dihedral       C4    C6    C2    H7        179.99996
  205 Dihedral       C4    C6    C5   H10        179.99997
  206 Dihedral       C5    C1    C2    C6         -0.00000
  207 Dihedral       C5    C1    C2    H7        179.99998
  208 Dihedral       C5    C1    C3    H8        179.99994
  209 Dihedral       C5    C1    C6   H11        179.99997
  210 Dihedral       C5    C3    C1    C6          0.00000
  211 Dihedral       C5    C3    C1   H12        179.99998
  212 Dihedral       C5    C3    C2    C6          0.00000
  213 Dihedral       C5    C3    C2    H7       -179.99998
  214 Dihedral       C5    C3    C4    C6         -0.00000
  215 Dihedral       C5    C3    C4    H9        179.99999
  216 Dihedral       C5    C4    C2    C6          0.00000
  217 Dihedral       C5    C4    C2    H7       -179.99996
  218 Dihedral       C5    C4    C3    H8       -179.99996
  219 Dihedral       C5    C4    C6   H11          0.00007
  220 Dihedral       C5    C6    C1   H12       -179.99999
  221 Dihedral       C5    C6    C2    H7        179.99996
  222 Dihedral       C5    C6    C4    H9          0.00001
  223 Dihedral       C6    C1    C2    H7        179.99998
  224 Dihedral       C6    C1    C3    H8        179.99994
  225 Dihedral       C6    C1    C5   H10         -0.00004
  226 Dihedral       C6    C2    C1   H12        179.99998
  227 Dihedral       C6    C2    C3    H8        179.99996
  228 Dihedral       C6    C2    C4    H9        179.99998
  229 Dihedral       C6    C4    C2    H7       -179.99996
  230 Dihedral       C6    C4    C3    H8       -179.99996
  231 Dihedral       C6    C4    C5   H10       -179.99997
  232 Dihedral       C6    C5    C1   H12          0.00002
  233 Dihedral       C6    C5    C3    H8       -179.99994
  234 Dihedral       C6    C5    C4    H9       -179.99999
  235 Dihedral       H7    C2    C1   H12         -0.00004
  236 Dihedral       H7    C2    C3    H8         -0.00001
  237 Dihedral       H7    C2    C4    H9          0.00002
  238 Dihedral       H7    C2    C6   H11         -0.00010
  239 Dihedral       H8    C3    C1   H12         -0.00009
  240 Dihedral       H8    C3    C4    H9          0.00003
  241 Dihedral       H8    C3    C5   H10          0.00011
  242 Dihedral       H9    C4    C5   H10          0.00004
  243 Dihedral       H9    C4    C6   H11          0.00008
  244 Dihedral      H10    C5    C1   H12         -0.00002
  245 Dihedral      H10    C5    C6   H11          0.00001
  246 Dihedral      H11    C6    C1   H12         -0.00002


  XYZ format geometry
  -------------------
12

C         0.114944     1.370921     0.000000
C        -1.129702     0.785167    -0.000000
C        -1.244418    -0.585738    -0.000000
C        -0.114943    -1.370920    -0.000000
C         1.129704    -0.785166     0.000000
C         1.244420     0.585738     0.000000
H        -2.010852     1.397894    -0.000000
H        -2.215721    -1.042422    -0.000000
H        -0.205163    -2.440365    -0.000000
H         2.010852    -1.397896     0.000000
H         2.215723     1.042422     0.000000
H         0.205157     2.440366     0.000000


 output psi to filename: ./benzene-pspw.movecs

 -----------------
 cputime in seconds
 prologue    : 6.251e-01
 main loop   : 2.556e+02
 epilogue    : 1.639e-01
 total       : 2.564e+02
 cputime/step: 4.217e-01 ( 606 evaluations, 4 linesearches)

 Time spent doing      total        step             percent
 total time            2.883886e+02 4.758888e-01     100.00%
 total FFT time        1.703294e+02 2.810716e-01      59.06%
 lagrange multipliers  4.160663e+00 6.865780e-03       1.44%
 local potentials      2.398258e-01 3.957522e-04       0.08%
 non-local potentials  3.360283e+01 5.545022e-02      11.65%
 ffm_dgemm             1.097460e+01 1.810990e-02       3.81%
 fmf_dgemm             2.555584e+01 4.217136e-02       8.86%
 m_diagonalize         1.862146e-02 3.072848e-05       0.01%
 mmm_multiply          4.250721e-02 7.014391e-05       0.01%

 >>> job completed at     Fri Apr 15 19:21:12 2022 <<<

Next rtdbstr={"current_task":"task pspw optimize","dbname":"benzene-pspw","driver":null,"foundtask":false,"geometries":{"geometry":{"autosym":0,"autoz":0,"center":1,"charges":[6.0,6.0,6.0,6.0,6.0,6.0,1.0,1.0,1.0,1.0,1.0,1.0],"conv":1.88972598858,"coords":[0.2172125322481542,2.5906657394283052,3.3270376244264824e-07,-2.134827931967708,1.4837506364281052,-4.847265425174066e-07,-2.3516093419119004,-1.1068856233677495,-8.60631644432617e-07,-0.21721175954918445,-2.590664787378236,-2.239925183867159e-07,2.134832330051716,-1.4837487002346144,5.856343824435711e-07,2.3516134145137135,1.1068847206573407,7.420855025424858e-07,-3.7999617577913902,2.641637465028204,-1.6172110958529253e-07,-4.187108280809608,-1.9698921233563085,-4.047037517597766e-07,-0.38770213824447264,-4.611623505271968,-1.0635388120577276e-07,3.7999612427962313,-2.641641666685247,2.513660386429502e-07,4.1871103763413435,1.969893572038544,1.7950861068421591e-07,0.38769131799120427,4.611625166369722,1.4895550749725348e-07],"masses":[12.0,12.0,12.0,12.0,12.0,12.0,1.008,1.008,1.008,1.008,1.008,1.008],"nion":12,"symbols":["C","C","C","C","C","C","H","H","H","H","H","H"],"unita":[1.0,0.0,0.0,0.0,1.0,0.0,0.0,0.0,1.0],"velocities":[0.0,0.0,0.0,0.0,0.0,0.0,0.0,0.0,0.0,0.0,0.0,0.0,0.0,0.0,0.0,0.0,0.0,0.0,0.0,0.0,0.0,0.0,0.0,0.0,0.0,0.0,0.0,0.0,0.0,0.0,0.0,0.0,0.0,0.0,0.0,0.0]}},"geometry":null,"nwinput_cur":41,"nwinput_lines":["Title \"Benzene test\"","","memory 1900 mb","start benzene-pspw","echo","","","","geometry angstroms noautosym noautoz","C   0.116672 1.386739 0.0","C   -1.142654 0.794419 0.0","C   -1.259277 -0.592319 0.0","C   -0.116677 -1.386735 0.0","C   1.142654 -0.794421 0.0","C   1.259280 0.592324 0.0","H   -2.030702 1.411908 0.0","H   -2.238046 -1.052702 0.0","H   -0.207350 -2.464561 0.0","H   2.030705 -1.411914  0.0","H   2.238054 1.052710  0.0","H   0.207341 2.464567  0.0","end","","nwpw","   pseudopotentials","   H library pspw_default","   C library pspw_default","   end","","   simulation_cell","     SC 26.0","   end","   2d-hcurve","   ","   xc pbe","   cutoff 30.0","end","","task pspw optimize","",""],"nwinput_nlines":41,"nwpw":{"cutoff":[30.0,60.0],"mapping":3,"pseudopotentials":{"C":"pspw_default","H":"pspw_default"},"simulation_cell":{"unita":[26.0,0.0,0.0,0.0,26.0,0.0,0.0,0.0,26.0]},"xc":"pbe"},"permanent_dir":".","psp_library_dir":"","pspw":{"eigenvalues":[-0.22671104928118366,-0.22675139758733934,-0.29656259155987263,-0.29665737864764274,-0.3297625664176248,-0.370807294491052,-0.3709043284964646,-0.39881924660425255,-0.4001090753492124,-0.47164021700371994,-0.5351757210441105,-0.535197200714113,-0.6655256305988216,-0.6655908321802599,-0.7708394440211286],"energies":[-37.880935870618444,-13.122107947993602,85.02209022863671,-12.694875204909538,56.47652267985677,27.928831911842103,-193.2760473830457,-1.3374581029958421,170.04418045727343,-16.481614831064647,0.0,0.0,0.0,0.0,0.0,0.0,0.0,0.0,0.0,0.0,0.0,0.0,0.0,0.0,0.0,0.0,0.0,0.0,0.0,0.0,0.0,0.0,0.0,0.0,0.0,0.0,0.0,0.0,0.0,0.0,0.0,0.0,0.0,0.0,0.0,0.0,0.0,0.0,0.0,0.0,0.0,0.0,0.0,0.0,0.0,0.0,0.0,0.0,0.0,0.0],"energy":-37.880935870618444},"scratch_dir":".","title":"Benzene test"}
Next task =0

writing rtdbjson = ./benzene-pspw.json
