pwdft (NWChemEx) - Version 1.0

============================== echo of input deck ==============================
Title "CH3 blyp mult=2  test"

memory stack 500 mb heap 750 mb global 10 mb

start ch3-pspw-blyp

echo

#permanent_dir ./perm
#scratch_dir   ./perm


geometry noautosym noautoz
C        -0.001019     0.000174    -0.001546
H         0.906455    -0.108803    -0.546844
H        -0.530793    -0.864249     0.322362
H        -0.363318     0.970746     0.242949
end


nwpw
   simulation_cell
     SC 26.0
   end
   
   lmbfgs

   mult 2
   xc blyp
   cutoff 50.0
   #1d-slab
   #np_dimensions -1 2
end

task pspw optimize


================================================================================

              NorthwestEx Computational Chemistry Package 1.0.0
           --------------------------------------------------------

                  Pacific Northwest National Laboratory
                           Richland, WA 99354

                         Copyright (c) 2020
                  Pacific Northwest National Laboratory
                       Battelle Memorial Institute

        NWChemEx is an open-source computational chemistry package
                   distributed under the terms of the
                 Educational Community License (ECL) 2.0
        A copy of the license is included with this distribution
                         in the LICENSE.TXT file

                             ACKNOWLEDGMENT
                             --------------

       This software and its documentation were developed at the
       Pacific Northwest National Laboratory, a multiprogram
       national laboratory, operated for the U.S. Department of Energy
       by Battelle under Contract Number DE-AC05-76RL01830. Support
       for this work was provided by the Department of Energy 
       Office of Advanced Scientific Computing and the Office of Basic
       Energy Sciences.

       Job information
       ---------------
       program               = pwdft (NWChemEx)
       build configured      = Wed Oct 25 15:23:39 2023
       source                = /Users/bylaska/Codes/PWDFT/Nwpw
       version               = 1.0
       default psp libraries = /Users/bylaska/Codes/PWDFT/Nwpw/libraryps

       date                  = Wed Nov  1 15:09:39 2023
       nproc                 = 1
       input                 = methyl-doublet.nw



First rtdbstr={"constraints":null,"current_task":"task pspw optimize","dbname":"ch3-pspw-blyp","driver":null,"foundtask":true,"geometries":{"geometry":{"autosym":0,"autoz":0,"center":1,"charges":[6.0,1.0,1.0,1.0],"conv":1.88972598858,"coords":[-0.0019526423928195947,0.00035855286584597325,-0.0029294073427762273,1.7129245593678273,-0.20557811619163666,-1.0333932094634732,-1.0030803382668005,-1.6331640553604434,0.6091679581661944,-0.6865984783293649,1.8344736850539136,0.45909914823509085],"fractional":false,"is_crystal":false,"masses":[12.0,1.008,1.008,1.008],"nion":4,"symbols":["C","H","H","H"],"unita":[1.0,0.0,0.0,0.0,1.0,0.0,0.0,0.0,1.0],"velocities":[0.0,0.0,0.0,0.0,0.0,0.0,0.0,0.0,0.0,0.0,0.0,0.0]}},"nwinput_cur":35,"nwinput_lines":["Title \"CH3 blyp mult=2  test\"","","memory stack 500 mb heap 750 mb global 10 mb","","start ch3-pspw-blyp","","echo","","","","","","geometry noautosym noautoz","C        -0.001019     0.000174    -0.001546","H         0.906455    -0.108803    -0.546844","H        -0.530793    -0.864249     0.322362","H        -0.363318     0.970746     0.242949","end","","","nwpw","   simulation_cell","     SC 26.0","   end","   ","   lmbfgs","","   mult 2","   xc blyp","   cutoff 50.0","   ","   ","end","","task pspw optimize","","",""],"nwinput_nlines":38,"nwpw":{"cutoff":[50.0,100.0],"ispin":2,"minimizer":2,"mult":2,"simulation_cell":{"unita":[26.0,0.0,0.0,0.0,26.0,0.0,0.0,0.0,26.0]},"xc":"blyp"},"permanent_dir":".","psp_library_dir":"","scratch_dir":".","title":"CH3 blyp mult=2  test"}
First task=3


Running staged energy optimization - lowlevel_rtdbstr = {"constraints":null,"current_task":"energy","dbname":"ch3-pspw-blyp","driver":null,"foundtask":true,"geometries":{"geometry":{"autosym":0,"autoz":0,"center":1,"charges":[6.0,1.0,1.0,1.0],"conv":1.88972598858,"coords":[-0.0019526423928195947,0.00035855286584597325,-0.0029294073427762273,1.7129245593678273,-0.20557811619163666,-1.0333932094634732,-1.0030803382668005,-1.6331640553604434,0.6091679581661944,-0.6865984783293649,1.8344736850539136,0.45909914823509085],"fractional":false,"is_crystal":false,"masses":[12.0,1.008,1.008,1.008],"nion":4,"symbols":["C","H","H","H"],"unita":[1.0,0.0,0.0,0.0,1.0,0.0,0.0,0.0,1.0],"velocities":[0.0,0.0,0.0,0.0,0.0,0.0,0.0,0.0,0.0,0.0,0.0,0.0]}},"nwinput_cur":35,"nwinput_lines":["Title \"CH3 blyp mult=2  test\"","","memory stack 500 mb heap 750 mb global 10 mb","","start ch3-pspw-blyp","","echo","","","","","","geometry noautosym noautoz","C        -0.001019     0.000174    -0.001546","H         0.906455    -0.108803    -0.546844","H        -0.530793    -0.864249     0.322362","H        -0.363318     0.970746     0.242949","end","","","nwpw","   simulation_cell","     SC 26.0","   end","   ","   lmbfgs","","   mult 2","   xc blyp","   cutoff 50.0","   ","   ","end","","task pspw optimize","","",""],"nwinput_nlines":38,"nwpw":{"cutoff":[12.5,25.0],"ispin":2,"minimizer":2,"mult":2,"simulation_cell":{"unita":[26.0,0.0,0.0,0.0,26.0,0.0,0.0,0.0,26.0]},"xc":"blyp"},"permanent_dir":".","psp_library_dir":"","scratch_dir":".","title":"CH3 blyp mult=2  test"}

          *****************************************************
          *                                                   *
          *               PWDFT PSPW Calculation              *
          *                                                   *
          *  [ (Grassmann/Stiefel manifold implementation) ]  *
          *  [              C++ implementation             ]  *
          *                                                   *
          *              version #7.00   02/27/21             *
          *                                                   *
          *    This code was developed by Eric J. Bylaska,    *
          *    Abhishek Bagusetty, David H. Bross, ...        *
          *                                                   *
          *****************************************************
          >>> job started at       Wed Nov  1 15:09:39 2023 <<<

 psp_library: /Users/bylaska/Codes/PWDFT/Nwpw/libraryps


 generating 1d pseudopotential file: ./C.psp
 generating 1d pseudopotential file: ./H.psp

 writing formatted psp filename: ./C.vpp

 writing formatted psp filename: ./H.vpp
 generating random psi from scratch
 Warning - Gram-Schmidt being performed on psi2
         - exact norm = 7 norm=7.38596 corrected norm=7 (error=0.385959)

     ===================  summary of input  =======================

 input psi filename: ./ch3-pspw-blyp.movecs

 number of processors used: 1
 processor grid           : 1 x 1
 parallel mapping         : 2d-hcurve
 parallel mapping         : balanced

 options:
   boundary conditions  = periodic
   electron spin        = unrestricted
   exchange-correlation = BLYP (White and Bird) parameterization

 elements involved in the cluster:
      1: C   valence charge =  4.0  lmax =2
             comment = Parameterized (J.Phys.Chem., vol 100, page 6966) Hamman psp 
             pseudopotential type            =  0
             highest angular component       =  2
             local potential used            =  2
             number of non-local projections =  4
             cutoff =    0.800   0.850   0.850
      2: H   valence charge =  1.0  lmax =1
             comment = Parameterized (Chem.Phys.Lett., vol 322, page 447) Hamman psp 
             pseudopotential type            =  0
             highest angular component       =  1
             local potential used            =  1
             number of non-local projections =  1
             cutoff =    0.800   0.800

 total charge =   0.000

 atom composition:
   C : 1   H : 3

 initial ion positions (au):
   1 C	(   -0.00195    0.00036   -0.00293 ) - atomic mass = 12.000
   2 H	(    1.71292   -0.20558   -1.03339 ) - atomic mass =  1.008
   3 H	(   -1.00308   -1.63316    0.60917 ) - atomic mass =  1.008
   4 H	(   -0.68660    1.83447    0.45910 ) - atomic mass =  1.008
   G.C.	(    0.00532   -0.00098    0.00799 )
 C.O.M.	(    0.00000    0.00000   -0.00000 )

 symmetry information: (symmetry_tolerance = 1.00e-03)
   group name   : C1  (group rank = 1 rotation type : asymmetric)
   inertia axes : e1 = <  -0.344    0.913    0.221 > - moment = 1.1129720e+04
                  e2 = <   0.522   -0.011    0.853 > - moment = 2.2298938e+04
                  e3 = <  -0.781   -0.409    0.472 > - moment = 1.1171913e+04

 number of electrons: spin up =     4 (   4 per task) down =     3 (   3 per task)

 supercell:
      volume =   17576.00
      lattice:    a1 = <   26.000    0.000    0.000 >
                  a2 = <    0.000   26.000    0.000 >
                  a3 = <    0.000    0.000   26.000 >
      reciprocal: b1 = <    0.242    0.000    0.000 >
                  b2 = <    0.000    0.242    0.000 >
                  b3 = <    0.000    0.000    0.242 >
      lattice:    a =      26.000 b =     26.000 c =      26.000
                  alpha =  90.000 beta =  90.000 gamma =  90.000
      density cutoff = 25.000 fft =  60 x   60 x   60  (   52508 waves    52508 per task)
      wavefnc cutoff = 12.500 fft =  60 x   60 x   60  (   18597 waves    18597 per task)

 Ewald parameters:
      energy cutoff =  25.000 fft =  60 x   60 x   60  (   52508 waves    52508 per task)
      Ewald summation: cut radius =   8.276 and   1
                       Mandelung Wigner-Seitz =  1.76011888 (alpha =  2.83729748 rs = 16.12911276)

 technical parameters:
      using io buffer 
      fixed step: time step =        5.80  ficticious mass =   400000.00
      tolerance =   1.000e-07 (energy)    1.000e-07 (density)    1.000e-04 (ion)
      max iterations =       1000 (   10 inner   100 outer)
      minimizer = Grassmann lmbfgs



     ================= Grassmann lmbfgs iteration =================
          >>> iteration started at Wed Nov  1 15:09:39 2023  <<<
     iter.                   Energy          DeltaE        DeltaRho
     --------------------------------------------------------------
        - 15 steepest descent iterations performed
        10      -4.202532299851e+00   -9.572483e-01    1.499327e-02
        - 10 steepest descent iterations performed
        20      -7.066974678105e+00   -1.059042e-01    1.300360e-03
        - 10 steepest descent iterations performed
        30      -7.357869733653e+00   -3.740396e-03    1.717755e-05
        40      -7.367397175183e+00   -9.720250e-05    7.013134e-08
        50      -7.367651082606e+00   -6.391593e-06    6.287408e-09
        60      -7.367663365606e+00   -2.070932e-07    1.522821e-10
        70      -7.367663842775e+00   -6.456986e-08    4.030832e-11
     *** tolerance ok. iteration terminated
          >>> iteration ended at   Wed Nov  1 15:10:04 2023  <<<

     =============  energy results (Molecule object)  =============


 number of electrons: spin up=     4.00000  down=     3.00000 (real space)


 total     energy    :   -7.3676638428e+00 (   -1.84192e+00 /ion)
 total orbital energy:   -2.8881804056e+00 (   -4.12597e-01 /electron)
 hartree energy      :    9.4470989269e+00 (    1.34959e+00 /electron)
 exc-corr energy     :   -2.7546443087e+00 (   -3.93521e-01 /electron)
 ion-ion energy      :    4.1638348918e+00 (    1.04096e+00 /ion)

 kinetic (planewave) :    5.5925526606e+00 (    7.98936e-01 /electron)
 V_local (planewave) :   -2.3324684365e+01 (   -3.33210e+00 /electron)
 V_nl    (planewave) :   -4.9182164833e-01 (   -7.02602e-02 /electron)
 V_Coul  (planewave) :    1.8894197854e+01 (    2.69917e+00 /electron)
 V_xc    (planewave) :   -3.5584249066e+00 (   -5.08346e-01 /electron)
 Viral Coefficient   :   -1.5164332964e+00

 orbital energy:
    -1.9424516e-01 (  -5.286eV)
    -3.7659686e-01 ( -10.248eV)     -3.6762925e-01 ( -10.004 eV)
    -3.7715492e-01 ( -10.263eV)     -3.6796431e-01 ( -10.013 eV)
    -6.1887999e-01 ( -16.841eV)     -5.8570991e-01 ( -15.938 eV)

 == Center of Charge ==

 spin up    = (    0.0002    -0.0003    -0.0001 )
 spin down  = (    0.0034    -0.0004     0.0055 )
      total = (    0.0016    -0.0004     0.0023 )
 ionic      = (    0.0022    -0.0004     0.0033 )

 == Molecular Dipole wrt Center of Mass ==

 mu   = (    0.0045    -0.0003     0.0071 ) au
 |mu| =      0.0084 au (     0.0213 Debye )

 output psi to filename: ./ch3-pspw-blyp.movecs

 ------------------
 cputime in seconds
 prologue    : 2.231e-01
 main loop   : 2.539e+01
 epilogue    : 5.798e-03
 total       : 2.562e+01
 cputime/step: 1.024e-01 ( 248 evaluations, 64 linesearches)

 Time spent doing      total        step             percent
 total time            2.580692e+01 1.040602e-01     100.00%
 total i/o time        2.073142e-02 8.359442e-05       0.08%
 total FFT time        1.078458e+01 4.348623e-02      41.79%
 lagrange multipliers  4.690583e-02 1.891364e-04       0.18%
 local potentials      1.241208e-03 5.004871e-06       0.00%
 non-local potentials  4.702984e-01 1.896364e-03       1.82%
 ffm_dgemm             3.876141e-01 1.562960e-03       1.50%
 fmf_dgemm             2.480306e-01 1.000124e-03       0.96%
 m_diagonalize         4.857970e-04 1.958859e-06       0.00%
 mmm_multiply          5.775900e-05 2.328992e-07       0.00%
 SCVtrans              1.554240e-04 6.267097e-07       0.00%

 >>> job completed at     Wed Nov  1 15:10:04 2023 <<<

Running staged energy optimization - lowlevel_rtdbstr = {"constraints":null,"current_task":"energy","dbname":"ch3-pspw-blyp","driver":null,"foundtask":true,"geometries":{"geometry":{"autosym":0,"autoz":0,"center":1,"charges":[6.0,1.0,1.0,1.0],"conv":1.88972598858,"coords":[-0.0019526423928195947,0.00035855286584597325,-0.0029294073427762273,1.7129245593678273,-0.20557811619163666,-1.0333932094634732,-1.0030803382668005,-1.6331640553604434,0.6091679581661944,-0.6865984783293649,1.8344736850539136,0.45909914823509085],"fractional":false,"is_crystal":false,"masses":[12.0,1.008,1.008,1.008],"nion":4,"symbols":["C","H","H","H"],"unita":[1.0,0.0,0.0,0.0,1.0,0.0,0.0,0.0,1.0],"velocities":[0.0,0.0,0.0,0.0,0.0,0.0,0.0,0.0,0.0,0.0,0.0,0.0]}},"nwinput_cur":35,"nwinput_lines":["Title \"CH3 blyp mult=2  test\"","","memory stack 500 mb heap 750 mb global 10 mb","","start ch3-pspw-blyp","","echo","","","","","","geometry noautosym noautoz","C        -0.001019     0.000174    -0.001546","H         0.906455    -0.108803    -0.546844","H        -0.530793    -0.864249     0.322362","H        -0.363318     0.970746     0.242949","end","","","nwpw","   simulation_cell","     SC 26.0","   end","   ","   lmbfgs","","   mult 2","   xc blyp","   cutoff 50.0","   ","   ","end","","task pspw optimize","","",""],"nwinput_nlines":38,"nwpw":{"cutoff":[25.0,50.0],"ispin":2,"minimizer":2,"mult":2,"simulation_cell":{"unita":[26.0,0.0,0.0,0.0,26.0,0.0,0.0,0.0,26.0]},"xc":"blyp"},"permanent_dir":".","psp_library_dir":"","scratch_dir":".","title":"CH3 blyp mult=2  test"}

          *****************************************************
          *                                                   *
          *               PWDFT PSPW Calculation              *
          *                                                   *
          *  [ (Grassmann/Stiefel manifold implementation) ]  *
          *  [              C++ implementation             ]  *
          *                                                   *
          *              version #7.00   02/27/21             *
          *                                                   *
          *    This code was developed by Eric J. Bylaska,    *
          *    Abhishek Bagusetty, David H. Bross, ...        *
          *                                                   *
          *****************************************************
          >>> job started at       Wed Nov  1 15:10:04 2023 <<<

 psp_library: /Users/bylaska/Codes/PWDFT/Nwpw/libraryps



 writing formatted psp filename: ./C.vpp

 writing formatted psp filename: ./H.vpp
 psi grids are being converted: 
 -----------------------------: 
 converting .... psi:1 spin:1
 converting .... psi:2 spin:1
 converting .... psi:3 spin:1
 converting .... psi:4 spin:1
 converting .... psi:1 spin:2
 converting .... psi:2 spin:2
 converting .... psi:3 spin:2

 input psi exists, reading from file: ./ch3-pspw-blyp.movecs

     ===================  summary of input  =======================

 input psi filename: ./ch3-pspw-blyp.movecs

 number of processors used: 1
 processor grid           : 1 x 1
 parallel mapping         : 2d-hcurve
 parallel mapping         : balanced

 options:
   boundary conditions  = periodic
   electron spin        = unrestricted
   exchange-correlation = BLYP (White and Bird) parameterization

 elements involved in the cluster:
      1: C   valence charge =  4.0  lmax =2
             comment = Parameterized (J.Phys.Chem., vol 100, page 6966) Hamman psp 
             pseudopotential type            =  0
             highest angular component       =  2
             local potential used            =  2
             number of non-local projections =  4
             cutoff =    0.800   0.850   0.850
      2: H   valence charge =  1.0  lmax =1
             comment = Parameterized (Chem.Phys.Lett., vol 322, page 447) Hamman psp 
             pseudopotential type            =  0
             highest angular component       =  1
             local potential used            =  1
             number of non-local projections =  1
             cutoff =    0.800   0.800

 total charge =   0.000

 atom composition:
   C : 1   H : 3

 initial ion positions (au):
   1 C	(   -0.00195    0.00036   -0.00293 ) - atomic mass = 12.000
   2 H	(    1.71292   -0.20558   -1.03339 ) - atomic mass =  1.008
   3 H	(   -1.00308   -1.63316    0.60917 ) - atomic mass =  1.008
   4 H	(   -0.68660    1.83447    0.45910 ) - atomic mass =  1.008
   G.C.	(    0.00532   -0.00098    0.00799 )
 C.O.M.	(    0.00000    0.00000   -0.00000 )

 symmetry information: (symmetry_tolerance = 1.00e-03)
   group name   : C1  (group rank = 1 rotation type : asymmetric)
   inertia axes : e1 = <  -0.344    0.913    0.221 > - moment = 1.1129720e+04
                  e2 = <   0.522   -0.011    0.853 > - moment = 2.2298938e+04
                  e3 = <  -0.781   -0.409    0.472 > - moment = 1.1171913e+04

 number of electrons: spin up =     4 (   4 per task) down =     3 (   3 per task)

 supercell:
      volume =   17576.00
      lattice:    a1 = <   26.000    0.000    0.000 >
                  a2 = <    0.000   26.000    0.000 >
                  a3 = <    0.000    0.000   26.000 >
      reciprocal: b1 = <    0.242    0.000    0.000 >
                  b2 = <    0.000    0.242    0.000 >
                  b3 = <    0.000    0.000    0.242 >
      lattice:    a =      26.000 b =     26.000 c =      26.000
                  alpha =  90.000 beta =  90.000 gamma =  90.000
      density cutoff = 50.000 fft =  84 x   84 x   84  (  148386 waves   148386 per task)
      wavefnc cutoff = 25.000 fft =  84 x   84 x   84  (   52508 waves    52508 per task)

 Ewald parameters:
      energy cutoff =  50.000 fft =  84 x   84 x   84  (  148386 waves   148386 per task)
      Ewald summation: cut radius =   8.276 and   1
                       Mandelung Wigner-Seitz =  1.76011888 (alpha =  2.83729748 rs = 16.12911276)

 technical parameters:
      using io buffer 
      fixed step: time step =        5.80  ficticious mass =   400000.00
      tolerance =   1.000e-07 (energy)    1.000e-07 (density)    1.000e-04 (ion)
      max iterations =       1000 (   10 inner   100 outer)
      minimizer = Grassmann lmbfgs



     ================= Grassmann lmbfgs iteration =================
          >>> iteration started at Wed Nov  1 15:10:04 2023  <<<
     iter.                   Energy          DeltaE        DeltaRho
     --------------------------------------------------------------
        - 15 steepest descent iterations performed
        10      -7.403356174560e+00   -1.061794e-05    8.647232e-08
        20      -7.403377740556e+00   -3.365340e-07    2.145045e-09
        30      -7.403378552449e+00   -7.264857e-08    1.408757e-10
     *** tolerance ok. iteration terminated
          >>> iteration ended at   Wed Nov  1 15:10:37 2023  <<<

     =============  energy results (Molecule object)  =============


 number of electrons: spin up=     4.00000  down=     3.00000 (real space)


 total     energy    :   -7.4033785524e+00 (   -1.85084e+00 /ion)
 total orbital energy:   -2.8773213052e+00 (   -4.11046e-01 /electron)
 hartree energy      :    9.4965446633e+00 (    1.35665e+00 /electron)
 exc-corr energy     :   -2.7660254675e+00 (   -3.95146e-01 /electron)
 ion-ion energy      :    4.1638348918e+00 (    1.04096e+00 /ion)

 kinetic (planewave) :    5.7143872583e+00 (    8.16341e-01 /electron)
 V_local (planewave) :   -2.3454846591e+01 (   -3.35069e+00 /electron)
 V_nl    (planewave) :   -5.5727330751e-01 (   -7.96105e-02 /electron)
 V_Coul  (planewave) :    1.8993089327e+01 (    2.71330e+00 /electron)
 V_xc    (planewave) :   -3.5726779917e+00 (   -5.10383e-01 /electron)
 Viral Coefficient   :   -1.5035222807e+00

 orbital energy:
    -1.9543505e-01 (  -5.318eV)
    -3.7632124e-01 ( -10.240eV)     -3.6757692e-01 ( -10.002 eV)
    -3.7682766e-01 ( -10.254eV)     -3.6798192e-01 ( -10.013 eV)
    -6.1326488e-01 ( -16.688eV)     -5.7991364e-01 ( -15.780 eV)

 == Center of Charge ==

 spin up    = (    0.0002    -0.0003     0.0000 )
 spin down  = (    0.0035    -0.0005     0.0055 )
      total = (    0.0016    -0.0004     0.0024 )
 ionic      = (    0.0022    -0.0004     0.0033 )

 == Molecular Dipole wrt Center of Mass ==

 mu   = (    0.0042    -0.0004     0.0065 ) au
 |mu| =      0.0077 au (     0.0196 Debye )

 output psi to filename: ./ch3-pspw-blyp.movecs

 ------------------
 cputime in seconds
 prologue    : 1.701e-01
 main loop   : 3.286e+01
 epilogue    : 2.064e-02
 total       : 3.305e+01
 cputime/step: 3.387e-01 ( 97 evaluations, 25 linesearches)

 Time spent doing      total        step             percent
 total time            5.886136e+01 6.068182e-01     100.00%
 total i/o time        7.398100e-02 7.626907e-04       0.13%
 total FFT time        2.796979e+01 2.883483e-01      47.52%
 lagrange multipliers  1.042469e-01 1.074710e-03       0.18%
 local potentials      5.993166e-03 6.178522e-05       0.01%
 non-local potentials  1.252170e+00 1.290897e-02       2.13%
 ffm_dgemm             8.180540e-01 8.433546e-03       1.39%
 fmf_dgemm             5.252930e-01 5.415392e-03       0.89%
 m_diagonalize         7.333800e-04 7.560619e-06       0.00%
 mmm_multiply          9.287600e-05 9.574845e-07       0.00%
 SCVtrans              2.174150e-04 2.241392e-06       0.00%

 >>> job completed at     Wed Nov  1 15:10:37 2023 <<<

Running staged energy optimization - lowlevel_rtdbstr = {"constraints":null,"current_task":"energy","dbname":"ch3-pspw-blyp","driver":null,"foundtask":true,"geometries":{"geometry":{"autosym":0,"autoz":0,"center":1,"charges":[6.0,1.0,1.0,1.0],"conv":1.88972598858,"coords":[-0.0019526423928195947,0.00035855286584597325,-0.0029294073427762273,1.7129245593678273,-0.20557811619163666,-1.0333932094634732,-1.0030803382668005,-1.6331640553604434,0.6091679581661944,-0.6865984783293649,1.8344736850539136,0.45909914823509085],"fractional":false,"is_crystal":false,"masses":[12.0,1.008,1.008,1.008],"nion":4,"symbols":["C","H","H","H"],"unita":[1.0,0.0,0.0,0.0,1.0,0.0,0.0,0.0,1.0],"velocities":[0.0,0.0,0.0,0.0,0.0,0.0,0.0,0.0,0.0,0.0,0.0,0.0]}},"nwinput_cur":35,"nwinput_lines":["Title \"CH3 blyp mult=2  test\"","","memory stack 500 mb heap 750 mb global 10 mb","","start ch3-pspw-blyp","","echo","","","","","","geometry noautosym noautoz","C        -0.001019     0.000174    -0.001546","H         0.906455    -0.108803    -0.546844","H        -0.530793    -0.864249     0.322362","H        -0.363318     0.970746     0.242949","end","","","nwpw","   simulation_cell","     SC 26.0","   end","   ","   lmbfgs","","   mult 2","   xc blyp","   cutoff 50.0","   ","   ","end","","task pspw optimize","","",""],"nwinput_nlines":38,"nwpw":{"cutoff":[37.5,75.0],"ispin":2,"minimizer":2,"mult":2,"simulation_cell":{"unita":[26.0,0.0,0.0,0.0,26.0,0.0,0.0,0.0,26.0]},"xc":"blyp"},"permanent_dir":".","psp_library_dir":"","scratch_dir":".","title":"CH3 blyp mult=2  test"}

          *****************************************************
          *                                                   *
          *               PWDFT PSPW Calculation              *
          *                                                   *
          *  [ (Grassmann/Stiefel manifold implementation) ]  *
          *  [              C++ implementation             ]  *
          *                                                   *
          *              version #7.00   02/27/21             *
          *                                                   *
          *    This code was developed by Eric J. Bylaska,    *
          *    Abhishek Bagusetty, David H. Bross, ...        *
          *                                                   *
          *****************************************************
          >>> job started at       Wed Nov  1 15:10:37 2023 <<<

 psp_library: /Users/bylaska/Codes/PWDFT/Nwpw/libraryps



 writing formatted psp filename: ./C.vpp

 writing formatted psp filename: ./H.vpp
 psi grids are being converted: 
 -----------------------------: 
 converting .... psi:1 spin:1
 converting .... psi:2 spin:1
 converting .... psi:3 spin:1
 converting .... psi:4 spin:1
 converting .... psi:1 spin:2
 converting .... psi:2 spin:2
 converting .... psi:3 spin:2

 input psi exists, reading from file: ./ch3-pspw-blyp.movecs

     ===================  summary of input  =======================

 input psi filename: ./ch3-pspw-blyp.movecs

 number of processors used: 1
 processor grid           : 1 x 1
 parallel mapping         : 2d-hcurve
 parallel mapping         : balanced

 options:
   boundary conditions  = periodic
   electron spin        = unrestricted
   exchange-correlation = BLYP (White and Bird) parameterization

 elements involved in the cluster:
      1: C   valence charge =  4.0  lmax =2
             comment = Parameterized (J.Phys.Chem., vol 100, page 6966) Hamman psp 
             pseudopotential type            =  0
             highest angular component       =  2
             local potential used            =  2
             number of non-local projections =  4
             cutoff =    0.800   0.850   0.850
      2: H   valence charge =  1.0  lmax =1
             comment = Parameterized (Chem.Phys.Lett., vol 322, page 447) Hamman psp 
             pseudopotential type            =  0
             highest angular component       =  1
             local potential used            =  1
             number of non-local projections =  1
             cutoff =    0.800   0.800

 total charge =   0.000

 atom composition:
   C : 1   H : 3

 initial ion positions (au):
   1 C	(   -0.00195    0.00036   -0.00293 ) - atomic mass = 12.000
   2 H	(    1.71292   -0.20558   -1.03339 ) - atomic mass =  1.008
   3 H	(   -1.00308   -1.63316    0.60917 ) - atomic mass =  1.008
   4 H	(   -0.68660    1.83447    0.45910 ) - atomic mass =  1.008
   G.C.	(    0.00532   -0.00098    0.00799 )
 C.O.M.	(    0.00000    0.00000   -0.00000 )

 symmetry information: (symmetry_tolerance = 1.00e-03)
   group name   : C1  (group rank = 1 rotation type : asymmetric)
   inertia axes : e1 = <  -0.344    0.913    0.221 > - moment = 1.1129720e+04
                  e2 = <   0.522   -0.011    0.853 > - moment = 2.2298938e+04
                  e3 = <  -0.781   -0.409    0.472 > - moment = 1.1171913e+04

 number of electrons: spin up =     4 (   4 per task) down =     3 (   3 per task)

 supercell:
      volume =   17576.00
      lattice:    a1 = <   26.000    0.000    0.000 >
                  a2 = <    0.000   26.000    0.000 >
                  a3 = <    0.000    0.000   26.000 >
      reciprocal: b1 = <    0.242    0.000    0.000 >
                  b2 = <    0.000    0.242    0.000 >
                  b3 = <    0.000    0.000    0.242 >
      lattice:    a =      26.000 b =     26.000 c =      26.000
                  alpha =  90.000 beta =  90.000 gamma =  90.000
      density cutoff = 75.000 fft = 108 x  108 x  108  (  272553 waves   272553 per task)
      wavefnc cutoff = 37.500 fft = 108 x  108 x  108  (   96336 waves    96336 per task)

 Ewald parameters:
      energy cutoff =  75.000 fft = 108 x  108 x  108  (  272553 waves   272553 per task)
      Ewald summation: cut radius =   8.276 and   1
                       Mandelung Wigner-Seitz =  1.76011888 (alpha =  2.83729748 rs = 16.12911276)

 technical parameters:
      using io buffer 
      fixed step: time step =        5.80  ficticious mass =   400000.00
      tolerance =   1.000e-07 (energy)    1.000e-07 (density)    1.000e-04 (ion)
      max iterations =       1000 (   10 inner   100 outer)
      minimizer = Grassmann lmbfgs



     ================= Grassmann lmbfgs iteration =================
          >>> iteration started at Wed Nov  1 15:10:38 2023  <<<
     iter.                   Energy          DeltaE        DeltaRho
     --------------------------------------------------------------
        - 15 steepest descent iterations performed
        10      -7.410668939691e+00   -8.011212e-07    2.250917e-08
        20      -7.410670551663e+00   -8.562131e-08    8.234012e-10
     *** tolerance ok. iteration terminated
          >>> iteration ended at   Wed Nov  1 15:11:24 2023  <<<

     =============  energy results (Molecule object)  =============


 number of electrons: spin up=     4.00000  down=     3.00000 (real space)


 total     energy    :   -7.4106705517e+00 (   -1.85267e+00 /ion)
 total orbital energy:   -2.8774877026e+00 (   -4.11070e-01 /electron)
 hartree energy      :    9.5042152472e+00 (    1.35775e+00 /electron)
 exc-corr energy     :   -2.7693282786e+00 (   -3.95618e-01 /electron)
 ion-ion energy      :    4.1638348918e+00 (    1.04096e+00 /ion)

 kinetic (planewave) :    5.7348315564e+00 (    8.19262e-01 /electron)
 V_local (planewave) :   -2.3474920351e+01 (   -3.35356e+00 /electron)
 V_nl    (planewave) :   -5.6930361700e-01 (   -8.13291e-02 /electron)
 V_Coul  (planewave) :    1.9008430494e+01 (    2.71549e+00 /electron)
 V_xc    (planewave) :   -3.5765257850e+00 (   -5.10932e-01 /electron)
 Viral Coefficient   :   -1.5017562721e+00

 orbital energy:
    -1.9581105e-01 (  -5.328eV)
    -3.7670388e-01 ( -10.251eV)     -3.6781840e-01 ( -10.009 eV)
    -3.7718024e-01 ( -10.264eV)     -3.6825692e-01 ( -10.021 eV)
    -6.1250457e-01 ( -16.667eV)     -5.7921264e-01 ( -15.761 eV)

 == Center of Charge ==

 spin up    = (    0.0002    -0.0003     0.0001 )
 spin down  = (    0.0035    -0.0005     0.0055 )
      total = (    0.0016    -0.0004     0.0024 )
 ionic      = (    0.0022    -0.0004     0.0033 )

 == Molecular Dipole wrt Center of Mass ==

 mu   = (    0.0041    -0.0004     0.0064 ) au
 |mu| =      0.0076 au (     0.0193 Debye )

 output psi to filename: ./ch3-pspw-blyp.movecs

 ------------------
 cputime in seconds
 prologue    : 2.879e-01
 main loop   : 4.623e+01
 epilogue    : 3.955e-02
 total       : 4.656e+01
 cputime/step: 6.247e-01 ( 74 evaluations, 17 linesearches)

 Time spent doing      total        step             percent
 total time            1.054321e+02 1.424758e+00     100.00%
 total i/o time        1.823345e-01 2.463980e-03       0.17%
 total FFT time        4.952065e+01 6.691980e-01      46.97%
 lagrange multipliers  2.101090e-01 2.839310e-03       0.20%
 local potentials      1.292712e-02 1.746909e-04       0.01%
 non-local potentials  2.365333e+00 3.196396e-02       2.24%
 ffm_dgemm             1.391984e+00 1.881059e-02       1.32%
 fmf_dgemm             9.110359e-01 1.231130e-02       0.86%
 m_diagonalize         9.035440e-04 1.221005e-05       0.00%
 mmm_multiply          1.228830e-04 1.660581e-06       0.00%
 SCVtrans              2.615320e-04 3.534216e-06       0.00%

 >>> job completed at     Wed Nov  1 15:11:24 2023 <<<

Running geometry optimization calculation - rtdbstr = {"constraints":null,"current_task":"task pspw optimize","dbname":"ch3-pspw-blyp","driver":null,"foundtask":true,"geometries":{"geometry":{"autosym":0,"autoz":0,"center":1,"charges":[6.0,1.0,1.0,1.0],"conv":1.88972598858,"coords":[-0.0019526423928195947,0.00035855286584597325,-0.0029294073427762273,1.7129245593678273,-0.20557811619163666,-1.0333932094634732,-1.0030803382668005,-1.6331640553604434,0.6091679581661944,-0.6865984783293649,1.8344736850539136,0.45909914823509085],"fractional":false,"is_crystal":false,"masses":[12.0,1.008,1.008,1.008],"nion":4,"symbols":["C","H","H","H"],"unita":[1.0,0.0,0.0,0.0,1.0,0.0,0.0,0.0,1.0],"velocities":[0.0,0.0,0.0,0.0,0.0,0.0,0.0,0.0,0.0,0.0,0.0,0.0]}},"nwinput_cur":35,"nwinput_lines":["Title \"CH3 blyp mult=2  test\"","","memory stack 500 mb heap 750 mb global 10 mb","","start ch3-pspw-blyp","","echo","","","","","","geometry noautosym noautoz","C        -0.001019     0.000174    -0.001546","H         0.906455    -0.108803    -0.546844","H        -0.530793    -0.864249     0.322362","H        -0.363318     0.970746     0.242949","end","","","nwpw","   simulation_cell","     SC 26.0","   end","   ","   lmbfgs","","   mult 2","   xc blyp","   cutoff 50.0","   ","   ","end","","task pspw optimize","","",""],"nwinput_nlines":38,"nwpw":{"cutoff":[50.0,100.0],"ispin":2,"minimizer":2,"mult":2,"simulation_cell":{"unita":[26.0,0.0,0.0,0.0,26.0,0.0,0.0,0.0,26.0]},"xc":"blyp"},"permanent_dir":".","psp_library_dir":"","scratch_dir":".","title":"CH3 blyp mult=2  test"}

          *****************************************************
          *                                                   *
          *             PWDFT PSPW GeoVib Calculation         *
          *                                                   *
          *  [ (Grassmann/Stiefel manifold implementation) ]  *
          *  [              C++ implementation             ]  *
          *                                                   *
          *              version #7.00   02/27/21             *
          *                                                   *
          *    This code was developed by Eric J. Bylaska,    *
          *    Abhishek Bagusetty, David H. Bross, ...        *
          *                                                   *
          *****************************************************
          >>> job started at       Wed Nov  1 15:11:24 2023 <<<

 psp_library: /Users/bylaska/Codes/PWDFT/Nwpw/libraryps



 writing formatted psp filename: ./C.vpp

 writing formatted psp filename: ./H.vpp
 psi grids are being converted: 
 -----------------------------: 
 converting .... psi:1 spin:1
 converting .... psi:2 spin:1
 converting .... psi:3 spin:1
 converting .... psi:4 spin:1
 converting .... psi:1 spin:2
 converting .... psi:2 spin:2
 converting .... psi:3 spin:2

 input psi exists, reading from file: ./ch3-pspw-blyp.movecs

     ===================  summary of input  =======================

 input psi filename: ./ch3-pspw-blyp.movecs

 number of processors used: 1
 processor grid           : 1 x 1
 parallel mapping         : 2d-hcurve
 parallel mapping         : balanced

 options:
   boundary conditions  = periodic
   electron spin        = unrestricted
   exchange-correlation = BLYP (White and Bird) parameterization

 elements involved in the cluster:
      1: C   valence charge =  4.0  lmax =2
             comment = Parameterized (J.Phys.Chem., vol 100, page 6966) Hamman psp 
             pseudopotential type            =  0
             highest angular component       =  2
             local potential used            =  2
             number of non-local projections =  4
             cutoff =    0.800   0.850   0.850
      2: H   valence charge =  1.0  lmax =1
             comment = Parameterized (Chem.Phys.Lett., vol 322, page 447) Hamman psp 
             pseudopotential type            =  0
             highest angular component       =  1
             local potential used            =  1
             number of non-local projections =  1
             cutoff =    0.800   0.800

 total charge =   0.000

 atom composition:
   C : 1   H : 3

 initial ion positions (au):
    1 C  (   -0.00195    0.00036   -0.00293 ) - atomic mass = 12.000
    2 H  (    1.71292   -0.20558   -1.03339 ) - atomic mass =  1.008
    3 H  (   -1.00308   -1.63316    0.60917 ) - atomic mass =  1.008
    4 H  (   -0.68660    1.83447    0.45910 ) - atomic mass =  1.008
    G.C. (    0.00532   -0.00098    0.00799 )
  C.O.M. (    0.00000    0.00000   -0.00000 )

 symmetry information: (symmetry_tolerance = 1.00e-03)
   group name   : C1  (group rank = 1 rotation type : asymmetric)
   inertia axes : e1 = <  -0.344    0.913    0.221 > - moment = 1.1129720e+04
                  e2 = <   0.522   -0.011    0.853 > - moment = 2.2298938e+04
                  e3 = <  -0.781   -0.409    0.472 > - moment = 1.1171913e+04


 number of electrons: spin up =     4 (   4 per task) down =     3 (   3 per task)

 supercell:
      volume =   17576.00
      lattice:    a1 = <   26.000    0.000    0.000 >
                  a2 = <    0.000   26.000    0.000 >
                  a3 = <    0.000    0.000   26.000 >
      reciprocal: b1 = <    0.242    0.000    0.000 >
                  b2 = <    0.000    0.242    0.000 >
                  b3 = <    0.000    0.000    0.242 >
      lattice:    a =      26.000 b =     26.000 c =      26.000
                  alpha =  90.000 beta =  90.000 gamma =  90.000
      density cutoff =100.000 fft = 120 x  120 x  120  (  419521 waves   419521 per task)
      wavefnc cutoff = 50.000 fft = 120 x  120 x  120  (  148386 waves   148386 per task)

 Ewald parameters:
      energy cutoff = 100.000 fft = 120 x  120 x  120  (  419521 waves   419521 per task)
      Ewald summation: cut radius =   8.276 and   1
                       Mandelung Wigner-Seitz =  1.76011888 (alpha =  2.83729748 rs = 16.12911276)

 technical parameters:
      using io buffer 
      fixed step: time step =        5.80  ficticious mass =   400000.00
      tolerance =   1.000e-07 (energy)    1.000e-07 (density)    1.000e-04 (ion)
      max iterations =       1000 (   10 inner   100 outer)
      minimizer = Grassmann lmbfgs



 -----------------------------------------------------------------------------------
 ----------------------------- Geometry Optimization -------------------------------
 -----------------------------------------------------------------------------------

 Optimization parameters:     30 (maxiter)    4.500e-04 (gmax)    3.000e-04 (grms)    1.200e-03 (xrms)    1.800e-03 (xmax)
    maximum number of steps       (maxiter) =   30
    maximum gradient threshold       (Gmax) = 4.500000e-04
    rms gradient threshold           (Grms) = 3.000000e-04
    rms cartesian step threshold     (Xrms) = 1.200000e-03
    maximum cartesian step threshold (Xmax) = 1.800000e-03

    fixed trust radius              (Trust) = 3.000000e-01
    number lmbfgs histories   (lmbfgs_size) =    9


 -----------------------------------------------------------------------------------
 -----------------------------    Initial Geometry     -----------------------------
 -----------------------------------------------------------------------------------

 ---------------------------------
         Initial Geometry         
 ---------------------------------

 == Bonds, Angles, and Torsions ==

 Number of Atoms = 4


 Units are Angstrom for bonds and degrees for angles

      Type          I     J     K     L     M      Value
      ----------- ----- ----- ----- ----- ----- ----------
    1 Stretch        C1    H2                      1.06430
    2 Stretch        C1    H3                      1.06433
    3 Stretch        C1    H4                      1.06445
    4 Bend           H2    C1    H3              119.81302
    5 Bend           H2    C1    H4              120.08318
    6 Bend           H3    C1    H4              120.08127


 == XYZ format geometry ==

4

C        -0.001033     0.000190    -0.001550
H         0.906440    -0.108787    -0.546848
H        -0.530807    -0.864233     0.322358
H        -0.363332     0.970761     0.242945



 ---------------------------------
     Calculate Initial Energy     
 ---------------------------------

     ================= Grassmann lmbfgs iteration =================
          >>> iteration started at Wed Nov  1 15:11:24 2023  <<<
     iter.                   Energy          DeltaE        DeltaRho
     --------------------------------------------------------------
        - 15 steepest descent iterations performed
        10      -7.411728294096e+00   -1.625426e-07    4.272229e-09
        20      -7.411728392905e+00   -9.880977e-08    2.248587e-09
     *** tolerance ok. iteration terminated
          >>> iteration ended at   Wed Nov  1 15:12:08 2023  <<<

     =============  energy results (Molecule object)  =============


 number of electrons: spin up=     4.00000  down=     3.00000 (real space)


 total     energy    :   -7.4117283929e+00 (   -1.85293e+00 /ion)
 total orbital energy:   -2.8773026381e+00 (   -4.11043e-01 /electron)
 hartree energy      :    9.5055433184e+00 (    1.35793e+00 /electron)
 exc-corr energy     :   -2.7698911544e+00 (   -3.95699e-01 /electron)
 ion-ion energy      :    4.1638348918e+00 (    1.04096e+00 /ion)

 kinetic (planewave) :    5.7388871895e+00 (    8.19841e-01 /electron)
 V_local (planewave) :   -2.3478818051e+01 (   -3.35412e+00 /electron)
 V_nl    (planewave) :   -5.7128458694e-01 (   -8.16121e-02 /electron)
 V_Coul  (planewave) :    1.9011086637e+01 (    2.71587e+00 /electron)
 V_xc    (planewave) :   -3.5771738262e+00 (   -5.11025e-01 /electron)
 Viral Coefficient   :   -1.5013694368e+00

 orbital energy:
    -1.9590482e-01 (  -5.331eV)
    -3.7673230e-01 ( -10.251eV)     -3.6782035e-01 ( -10.009 eV)
    -3.7720766e-01 ( -10.264eV)     -3.6826548e-01 ( -10.021 eV)
    -6.1232280e-01 ( -16.662eV)     -5.7904922e-01 ( -15.757 eV)

 == Center of Charge ==

 spin up    = (    0.0002    -0.0003     0.0001 )
 spin down  = (    0.0035    -0.0005     0.0055 )
      total = (    0.0016    -0.0004     0.0024 )
 ionic      = (    0.0022    -0.0004     0.0033 )

 == Molecular Dipole wrt Center of Mass ==

 mu   = (    0.0041    -0.0004     0.0063 ) au
 |mu| =      0.0076 au (     0.0193 Debye )


 ---------------------------------
    Calculate Initial Gradient    
 ---------------------------------

 ion forces (au):
    1 C   (    0.00035   -0.00019    0.00038 )
    2 H   (   -0.00008    0.00022   -0.00014 )
    3 H   (   -0.00025    0.00015   -0.00010 )
    4 H   (   -0.00004   -0.00015   -0.00020 )
  C.O.M.  (    0.00025   -0.00014    0.00027 )
|F|/nion  =    0.00018
max|Fatom|=    0.00055  (   0.028 eV/Angstrom)



@ Step             Energy     Delta E     Gmax     Grms     Xrms     Xmax   Walltime
@ ---- ------------------ ----------- -------- -------- -------- -------- ----------
@    0       -7.411728393  -7.412e+00  0.00055  0.00018  0.00005  0.00016       44.5        50
                                                     ok       ok       ok


 -----------------------------------------------------------------------------------
 ----------------------------- Optimization Step     1 -----------------------------
 -----------------------------------------------------------------------------------

 ---------------------------------
  Geometry for Step 1
 ---------------------------------

 == Bonds, Angles, and Torsions ==

 Number of Atoms = 4


 Units are Angstrom for bonds and degrees for angles

      Type          I     J     K     L     M      Value
      ----------- ----- ----- ----- ----- ----- ----------
    1 Stretch        C1    H2                      1.06428
    2 Stretch        C1    H3                      1.06431
    3 Stretch        C1    H4                      1.06445
    4 Bend           H2    C1    H3              119.82002
    5 Bend           H2    C1    H4              120.08009
    6 Bend           H3    C1    H4              120.07789


 == XYZ format geometry ==

4

C        -0.000978     0.000159    -0.001490
H         0.906427    -0.108752    -0.546870
H        -0.530846    -0.864209     0.322342
H        -0.363339     0.970737     0.242913




 ---------------------------------
  Calculate Energy for Step 1
 ---------------------------------

     ================= Grassmann lmbfgs iteration =================
          >>> iteration started at Wed Nov  1 15:12:08 2023  <<<
     iter.                   Energy          DeltaE        DeltaRho
     --------------------------------------------------------------
        - 15 steepest descent iterations performed
        10      -7.411728586895e+00   -8.587930e-08    1.462520e-09
     *** tolerance ok. iteration terminated
          >>> iteration ended at   Wed Nov  1 15:12:36 2023  <<<

     =============  energy results (Molecule object)  =============


 number of electrons: spin up=     4.00000  down=     3.00000 (real space)


 total     energy    :   -7.4117285869e+00 (   -1.85293e+00 /ion)
 total orbital energy:   -2.8773747173e+00 (   -4.11054e-01 /electron)
 hartree energy      :    9.5055533586e+00 (    1.35794e+00 /electron)
 exc-corr energy     :   -2.7698970504e+00 (   -3.95700e-01 /electron)
 ion-ion energy      :    4.1639148935e+00 (    1.04098e+00 /ion)

 kinetic (planewave) :    5.7388765210e+00 (    8.19840e-01 /electron)
 V_local (planewave) :   -2.3478861947e+01 (   -3.35412e+00 /electron)
 V_nl    (planewave) :   -5.7131436276e-01 (   -8.16163e-02 /electron)
 V_Coul  (planewave) :    1.9011106717e+01 (    2.71587e+00 /electron)
 V_xc    (planewave) :   -3.5771816459e+00 (   -5.11026e-01 /electron)
 Viral Coefficient   :   -1.5013829287e+00

 orbital energy:
    -1.9591476e-01 (  -5.331eV)
    -3.7676028e-01 ( -10.252eV)     -3.6784700e-01 ( -10.010 eV)
    -3.7720040e-01 ( -10.264eV)     -3.6825670e-01 ( -10.021 eV)
    -6.1233594e-01 ( -16.663eV)     -5.7905965e-01 ( -15.757 eV)

 == Center of Charge ==

 spin up    = (    0.0002    -0.0003     0.0001 )
 spin down  = (    0.0035    -0.0005     0.0055 )
      total = (    0.0016    -0.0004     0.0024 )
 ionic      = (    0.0022    -0.0004     0.0034 )

 == Molecular Dipole wrt Center of Mass ==

 mu   = (    0.0043    -0.0005     0.0066 ) au
 |mu| =      0.0079 au (     0.0201 Debye )


 ---------------------------------
  Calculate Gradient for Step 1
 ---------------------------------

 ion forces (au):
    1 C   (    0.00002   -0.00002    0.00002 )
    2 H   (   -0.00008    0.00020   -0.00017 )
    3 H   (   -0.00026    0.00013   -0.00011 )
    4 H   (   -0.00005   -0.00015   -0.00022 )
  C.O.M.  (   -0.00001   -0.00000   -0.00002 )
|F|/nion  =    0.00012
max|Fatom|=    0.00031  (   0.016 eV/Angstrom)

      ----------------------
      Optimization converged
      ----------------------


  Step             Energy     Delta E     Gmax     Grms     Xrms     Xmax   Walltime
  ---- ------------------ ----------- -------- -------- -------- -------- ----------
@    1       -7.411728587  -1.940e-07  0.00031  0.00012  0.00004  0.00009       71.8        81
                                            ok       ok       ok       ok


 ---------------------------------
  Final Geometry 
 ---------------------------------

 == Bonds, Angles, and Torsions ==

 Number of Atoms = 4


 Units are Angstrom for bonds and degrees for angles

      Type          I     J     K     L     M      Value
      ----------- ----- ----- ----- ----- ----- ----------
    1 Stretch        C1    H2                      1.06428
    2 Stretch        C1    H3                      1.06431
    3 Stretch        C1    H4                      1.06443
    4 Bend           H2    C1    H3              119.82380
    5 Bend           H2    C1    H4              120.07829
    6 Bend           H3    C1    H4              120.07611


 == XYZ format geometry ==

4

C        -0.000975     0.000157    -0.001486
H         0.906414    -0.108720    -0.546897
H        -0.530887    -0.864189     0.322324
H        -0.363347     0.970713     0.242878



 output psi to filename: ./ch3-pspw-blyp.movecs

 -----------------
 cputime in seconds
 prologue    : 3.778e-01
 main loop   : 7.147e+01
 epilogue    : 5.794e-02
 total       : 7.190e+01
 cputime/step: 8.823e-01 ( 81 evaluations, 16 linesearches)

 Time spent doing      total        step             percent
 total time            1.773636e+02 2.189674e+00     100.00%
 total i/o time        3.413840e-01 4.214618e-03       0.19%
 total FFT time        8.327678e+01 1.028108e+00      46.95%
 lagrange multipliers  5.437300e-01 6.712717e-03       0.31%
 local potentials      4.106250e-02 5.069444e-04       0.02%
 non-local potentials  4.354517e+00 5.375947e-02       2.46%
 ffm_dgemm             2.347903e+00 2.898645e-02       1.32%
 fmf_dgemm             1.533673e+00 1.893423e-02       0.86%
 m_diagonalize         1.078542e-03 1.331533e-05       0.00%
 mmm_multiply          1.525540e-04 1.883383e-06       0.00%
 SCVtrans              3.092860e-04 3.818346e-06       0.00%

 >>> job completed at     Wed Nov  1 15:12:36 2023 <<<

Next rtdbstr={"constraints":null,"current_task":"task pspw optimize","dbname":"ch3-pspw-blyp","driver":null,"foundtask":false,"geometries":{"geometry":{"autosym":0,"autoz":0,"center":1,"charges":[6.0,1.0,1.0,1.0],"conv":1.88972598858,"coords":[-0.0018425843109180393,0.000295811778669195,-0.0028084191675311738,1.7128755993089317,-0.20545090948588332,-1.0334859733827935,-1.0032312836884307,-1.6330802881029443,0.6091044284696271,-0.6866268268615932,1.8343818505681184,0.4589736355585145],"fractional":false,"is_crystal":false,"masses":[12.0,1.008,1.008,1.008],"nion":4,"symbols":["C","H","H","H"],"unita":[1.0,0.0,0.0,0.0,1.0,0.0,0.0,0.0,1.0],"velocities":[0.0,0.0,0.0,0.0,0.0,0.0,0.0,0.0,0.0,0.0,0.0,0.0]}},"geometry":null,"nwinput_cur":38,"nwinput_lines":["Title \"CH3 blyp mult=2  test\"","","memory stack 500 mb heap 750 mb global 10 mb","","start ch3-pspw-blyp","","echo","","","","","","geometry noautosym noautoz","C        -0.001019     0.000174    -0.001546","H         0.906455    -0.108803    -0.546844","H        -0.530793    -0.864249     0.322362","H        -0.363318     0.970746     0.242949","end","","","nwpw","   simulation_cell","     SC 26.0","   end","   ","   lmbfgs","","   mult 2","   xc blyp","   cutoff 50.0","   ","   ","end","","task pspw optimize","","",""],"nwinput_nlines":38,"nwpw":{"cutoff":[50.0,100.0],"initialize_wavefunction":null,"ispin":2,"minimizer":2,"mult":2,"simulation_cell":{"unita":[26.0,0.0,0.0,0.0,26.0,0.0,0.0,0.0,26.0]},"xc":"blyp"},"permanent_dir":".","psp_library_dir":"","pspw":{"eigenvalues":[-0.19591476288631507,-0.37676027775962767,-0.3772003956868447,-0.6123359381498205,-0.3678470000461823,-0.3682566974261187,-0.5790596453735992],"energies":[-7.41172858689482,-2.8773747173285082,9.505553358576057,-2.769897050394803,4.16391489346434,5.738876520970053,-23.47886194675773,-0.5713143627561008,19.011106717152114,-3.5771816459402075,0.0,0.0,0.0,0.0,0.0,0.0,0.0,0.0,0.0,0.0,0.0,0.0,0.0,0.0,0.0,0.0,0.0,0.0,0.0,0.0,0.0,0.0,0.0,0.0,0.0,0.0,0.0,0.0,0.0,0.0,0.0,0.0,0.0,0.0,0.0,0.0,0.0,0.0,0.0,0.0,0.0,0.0,0.0,0.0,0.0,0.0,0.0,0.0,0.0,0.0,0.0,0.0,0.0,6.7903865311e-313,5.66634e-319,0.0,3.042430429e-314,6.7903865311e-313,5.66634e-319,0.0,3.042430445e-314,6.7903865311e-313,0.0,1.040194e-317,0.0,3.13151306251402e-294,0.0,4e-323,0.0,2.130204648e-314],"energy":-7.41172858689482},"scratch_dir":".","title":"CH3 blyp mult=2  test"}
Next task =0

writing rtdbjson = ./ch3-pspw-blyp.json
