 argument  1 = eric0.nw
                                         
                                         


              Northwest Computational Chemistry Package (NWChem) 6.8
              ------------------------------------------------------


                    Environmental Molecular Sciences Laboratory
                       Pacific Northwest National Laboratory
                                Richland, WA 99352

                              Copyright (c) 1994-2018
                       Pacific Northwest National Laboratory
                            Battelle Memorial Institute

             NWChem is an open-source computational chemistry package
                        distributed under the terms of the
                      Educational Community License (ECL) 2.0
             A copy of the license is included with this distribution
                              in the LICENSE.TXT file

                                  ACKNOWLEDGMENT
                                  --------------

            This software and its documentation were developed at the
            EMSL at Pacific Northwest National Laboratory, a multiprogram
            national laboratory, operated for the U.S. Department of Energy
            by Battelle under Contract Number DE-AC05-76RL01830. Support
            for this work was provided by the Department of Energy Office
            of Biological and Environmental Research, Office of Basic
            Energy Sciences, and the Office of Advanced Scientific Computing.


           Job information
           ---------------

    hostname        = WE34304
    program         = nwchem
    date            = Sun Sep 23 13:14:55 2018

    compiled        = Sat_Sep_22_17:11:11_2018
    source          = /Users/bylaska/nwchem-releases/nwchem-new
    nwchem branch   = Development
    nwchem revision = N/A
    ga revision     = 5.6.5
    use scalapack   = F
    input           = eric0.nw
    prefix          = eric.
    data base       = ./eric.db
    status          = startup
    nproc           =        1
    time left       =     -1s



           Memory information
           ------------------

    heap     =   29491196 doubles =    225.0 Mbytes
    stack    =   29491201 doubles =    225.0 Mbytes
    global   =   58982400 doubles =    450.0 Mbytes (distinct from heap & stack)
    total    =  117964797 doubles =    900.0 Mbytes
    verify   = yes
    hardfail = no 


           Directory information
           ---------------------

  0 permanent = .
  0 scratch   = .




                                NWChem Input Module
                                -------------------



 Scaling coordinates for geometry "geometry" by  1.889725989
 (inverse scale =  0.529177249)



                             Geometry "geometry" -> ""
                             -------------------------

 Output coordinates in angstroms (scale by  1.889725989 to convert to a.u.)

  No.       Tag          Charge          X              Y              Z
 ---- ---------------- ---------- -------------- -------------- --------------
    1 C                    6.0000     0.00000000     0.00000000    -1.00000000
    2 C                    6.0000     0.00000000     0.00000000     0.00000000
    3 C                    6.0000     0.00000000     0.00000000     1.00000000

      Atomic Mass 
      ----------- 

      C                 12.000000


 Effective nuclear repulsion energy (a.u.)      47.6259524100

            Nuclear Dipole moment (a.u.) 
            ----------------------------
        X                 Y               Z
 ---------------- ---------------- ----------------
     0.0000000000     0.0000000000     0.0000000000


            XYZ format geometry
            -------------------
     3
 geometry
 C                     0.00000000     0.00000000    -1.00000000
 C                     0.00000000     0.00000000     0.00000000
 C                     0.00000000     0.00000000     1.00000000

 ==============================================================================
                                internuclear distances
 ------------------------------------------------------------------------------
       center one      |      center two      | atomic units |  angstroms
 ------------------------------------------------------------------------------
    2 C                |   1 C                |     1.88973  |     1.00000
    3 C                |   2 C                |     1.88973  |     1.00000
 ------------------------------------------------------------------------------
                         number of included internuclear distances:          2
 ==============================================================================



 ==============================================================================
                                 internuclear angles
 ------------------------------------------------------------------------------
        center 1       |       center 2       |       center 3       |  degrees
 ------------------------------------------------------------------------------
    1 C                |   2 C                |   3 C                |   180.00
 ------------------------------------------------------------------------------
                            number of included internuclear angles:          1
 ==============================================================================



          ****************************************************
          *                                                  *
          *               NWPW PSPW Calculation              *
          *                                                  *
          * [ (Grassmann/Stiefel manifold implementation)  ] *
          *                                                  *
          *      [ NorthWest Chemistry implementation ]      *
          *                                                  *
          *            version #5.10   06/12/02              *
          *                                                  *
          *    This code was developed by Eric J. Bylaska,   *
          *    and was based upon algorithms and code        *
          *    developed by the group of Prof. John H. Weare *
          *                                                  *
          ****************************************************
     >>>  JOB STARTED       AT Sun Sep 23 13:14:55 2018  <<<
          ================ input data ========================

 ======================================================
 || Some distances are very short. Check coordinates ||
 ======================================================

 pseudopotential is not correctly formatted:C.vpp                                             

 Generated formatted_filename: ./C.vpp
 Error reading psi - bad grid
 nfft :                  120                  120                  120
 ngrid:                   48                   48                   48
 Error reading psi - bad grid
 nfft :                  120                  120                  120
 ngrid:                   48                   48                   48
 Error reading psi - bad grid

 Grid is being converted:
 ------------------------

 To turn off automatic grid conversion:

 set nwpw:psi_nogrid .false.

 old_filename: eric.movecs                                       
 new_filename: eric.movecs                                       
 converting  : 120x120x120 -->  48x 48x 48
converting .... psi:    1 spin: 1
converting .... psi:    2 spin: 1
converting .... psi:    3 spin: 1
converting .... psi:    4 spin: 1
converting .... psi:    5 spin: 1
converting .... psi:    6 spin: 1

 input psi filename:./eric.movecs
 Warning - Gram-Schmidt being performed on psi:   6.0000000000000000        5.9956737414583765        6.0000000000002727        4.3262585416234955E-003

 number of processors used:         1
 processor grid           :   1 x   1
 parallel mapping         :2d hilbert
 parallel mapping         :  balanced
 number of threads        :         1
 parallel io              :       off

 options:
      boundary conditions  = periodic    (version3)
      electron spin        = restricted
      exchange-correlation = LDA (Vosko et al) parameterization

 elements involved in the cluster:
      1: C   valence charge:  4.0000  lmax=  2
             comment    : Parameterized (J.Phys.Chem., vol 100, page 6966) Hamman psp
             pseudpotential type            :   0
             highest angular component      :   2
             local potential used           :   2
             number of non-local projections:   4
             cutoff =   0.800   0.850   0.850


 total charge:   0.000

 atomic composition:
     C   :    3

 number of electrons: spin up=     6 (   6 per task)  down=     6 (   6 per task) (Fourier space)
 number of orbitals : spin up=     6 (   6 per task)  down=     6 (   6 per task) (Fourier space)

 supercell:
      cell_name:  cell_default                                      
      lattice:    a1=<  30.000   0.000   0.000 >
                  a2=<   0.000  30.000   0.000 >
                  a3=<   0.000   0.000  30.000 >
      reciprocal: b1=<   0.209   0.000   0.000 >
                  b2=<   0.000   0.209   0.000 >
                  b3=<   0.000   0.000   0.209 >
      lattice:    a=      30.000 b=     30.000 c=      30.000
                  alpha=  90.000 beta=  90.000 gamma=  90.000
                  omega=     27000.0

      density cutoff= 12.633  fft= 48x 48x 48(    28874 waves    28874 per task)
      wavefnc cutoff= 12.633  fft= 48x 48x 48(    28874 waves    28874 per task)
      Ewald summation: cut radius=    9.55  and  1
                       Madelung Wigner-Seitz=    1.76011888 (alpha=    2.83729748 rs=18.61051473)

 technical parameters:
      time step=      5.80     fictitious mass=  400000.0
      tolerance=0.100E-06 (energy)   0.100E-06 (density)
      maximum iterations =      1000 (   10 inner    100 outer )





== Energy Calculation ==


          ====== Grassmann conjugate gradient iteration ======
     >>>  ITERATION STARTED AT Sun Sep 23 13:14:56 2018  <<<
    iter.           Energy         DeltaE       DeltaRho 
    ------------------------------------------------------
      10   -0.1620744596E+02   -0.30950E-05    0.10486E-07
      20   -0.1620744965E+02   -0.90223E-07    0.53360E-09
  *** tolerance ok. iteration terminated
     >>>  ITERATION ENDED   AT Sun Sep 23 13:14:59 2018  <<<


==  Summary Of Results  ==

 number of electrons: spin up=    6.00000  down=    6.00000 (real space)

 total     energy    :  -0.1620744965E+02 (   -0.54025E+01/ion)
 total orbital energy:  -0.6191622340E+01 (   -0.10319E+01/electron)
 hartree   energy    :   0.2600956734E+02 (    0.43349E+01/electron)
 exc-corr  energy    :  -0.5210620620E+01 (   -0.86844E+00/electron)
 ion-ion   energy    :   0.1438463994E+02 (    0.47949E+01/ion)

 kinetic (planewave) :   0.1259231342E+02 (    0.20987E+01/electron)
 V_local (planewave) :  -0.6433732810E+02 (   -0.10723E+02/electron)
 V_nl    (planewave) :   0.3539783600E+00 (    0.58996E-01/electron)
 V_Coul  (planewave) :   0.5201913469E+02 (    0.86699E+01/electron)
 V_xc.   (planewave) :  -0.6819720708E+01 (   -0.11366E+01/electron)
 Virial Coefficient  :  -0.1491698557E+01

 orbital energies:
    -0.2868996E+00 (  -7.807eV)
    -0.2873955E+00 (  -7.820eV)
    -0.4544068E+00 ( -12.365eV)
    -0.4544068E+00 ( -12.365eV)
    -0.7484092E+00 ( -20.365eV)
    -0.8642934E+00 ( -23.519eV)

 Total PSPW energy     :  -0.1620744965E+02


=== Spin Contamination ===

 <Sexact^2> =    0.0000000000000000     
 <S^2>      =    0.0000000000000000     



== Center of Charge ==

spin up     (    0.0000,    0.0000,    0.0000 )
spin down   (    0.0000,    0.0000,    0.0000 )
     total  (    0.0000,    0.0000,    0.0000 )
ionic       (    0.0000,    0.0000,    0.0000 )


== Molecular Dipole wrt Center of Mass ==

mu   =  (   -0.0000,   -0.0000,   -0.0000 ) au
|mu| =     0.0001 au,       0.0002 Debye

 output psi filename:./eric.movecs


== Timing ==

cputime in seconds
  prologue    :   0.100891E+01
  main loop   :   0.327155E+01
  epilogue    :   0.161691E-01
  total       :   0.429663E+01
  cputime/step:   0.503316E-01       (      65 evalulations,      17 linesearches)


Time spent doing                        total          step       percent
  total time                 :   0.429905E+01  0.661392E-01       100.0 %
  i/o time                   :   0.760030E+00  0.116928E-01        17.7 %
  FFTs                       :   0.235121E+00  0.361725E-02         5.5 %
  dot products               :   0.152294E+00  0.234299E-02         3.5 %
  geodesic                   :   0.322058E+00  0.495474E-02         7.5 %
  ffm_dgemm                  :   0.190659E-01  0.293321E-03         0.4 %
  fmf_dgemm                  :   0.295792E+00  0.455065E-02         6.9 %
  mmm_dgemm                  :   0.173354E-03  0.266699E-05         0.0 %
  m_diagonalize              :   0.655875E-03  0.100904E-04         0.0 %
  exchange correlation       :   0.430182E+00  0.661818E-02        10.0 %
  local pseudopotentials     :   0.775099E-03  0.119246E-04         0.0 %
  non-local pseudopotentials :   0.349057E+00  0.537011E-02         8.1 %
  hartree potentials         :   0.127001E-01  0.195386E-03         0.3 %
  ion-ion interaction        :   0.100803E-02  0.155082E-04         0.0 %
  structure factors          :   0.318694E-01  0.490298E-03         0.7 %
  phase factors              :   0.905891E-05  0.139368E-06         0.0 %
  masking and packing        :   0.182135E+00  0.280208E-02         4.2 %
  queue fft                  :   0.148155E+01  0.227930E-01        34.5 %
  queue fft (serial)         :   0.881475E+00  0.135612E-01        20.5 %
  queue fft (message passing):   0.553193E+00  0.851066E-02        12.9 %
  non-local psp FFM          :   0.113203E+00  0.174159E-02         2.6 %
  non-local psp FMF          :   0.188383E+00  0.289820E-02         4.4 %
  non-local psp FFM A        :   0.329741E-01  0.507293E-03         0.8 %
  non-local psp FFM B        :   0.654042E-01  0.100622E-02         1.5 %

     >>>  JOB COMPLETED     AT Sun Sep 23 13:14:59 2018  <<<

 Task  times  cpu:        4.3s     wall:        4.3s


                                NWChem Input Module
                                -------------------


 >>>> PSPW Parallel Module - steepest_descent <<<<
          ****************************************************
          *                                                  *
          *     Car-Parrinello microcluster calculation      *
          *                                                  *
          *     [     steepest descent minimization   ]      *
          *                                                  *
          *     [ NorthWest Chemistry implementation ]       *
          *                                                  *
          *            version #5.00   06/01/99              *
          *                                                  *
          *    This code was developed by Eric J. Bylaska,   *
          *    and was based upon algorithms and code        *
          *    developed by the group of Prof. John H. Weare *
          *                                                  *
          ****************************************************
     >>>  JOB STARTED       AT Sun Sep 23 13:14:59 2018  <<<
          ================ PSPW input data ===================

 ======================================================
 || Some distances are very short. Check coordinates ||
 ======================================================


 input psi filename:./eric.movecs

 number of processors used:         1
 processor grid           :   1 x   1
 parallel mapping         :   2d hilbert
 parallel mapping         :     balanced
 parallel io              :       off
 number of threads        :         1

 options:
      ionic motion         = no
      boundary conditions  = periodic    (version3)
      electron spin        = restricted
      exchange-correlation = LDA (Vosko et al) parameterization

 elements involved in the cluster:
      1: C   valence charge:  4.0000  lmax=  2
             comment    : Parameterized (J.Phys.Chem., vol 100, page 6966) Hamman psp
             pseudpotential type            :   0
             highest angular component      :   2
             local potential used           :   2
             number of non-local projections:   4
             cutoff =   0.800   0.850   0.850


 total charge=   0.000

 atomic composition:
     C :    3

 initial position of ions:
        1 C    (    0.00000    0.00000   -1.88973 ) - atomic mass=  12.000          
        2 C    (    0.00000    0.00000    0.00000 ) - atomic mass=  12.000          
        3 C    (    0.00000    0.00000    1.88973 ) - atomic mass=  12.000          
        G.C.   (    0.00000    0.00000    0.00000 )
        C.O.M. (    0.00000    0.00000    0.00000 )
        number of constraints =      0 ( DOF =      3 )

 number of electrons: spin up=     6 (   6 per task)  down=     6 (   6 per task) (Fourier space)
 number of orbitals : spin up=     6 (   6 per task)  down=     6 (   6 per task) (Fourier space)

 supercell:
      lattice:    a1=<  30.000   0.000   0.000 >
                  a2=<   0.000  30.000   0.000 >
                  a3=<   0.000   0.000  30.000 >
      reciprocal: b1=<   0.209   0.000   0.000 >
                  b2=<   0.000   0.209   0.000 >
                  b3=<   0.000   0.000   0.209 >
      volume :      27000.0
      density cutoff= 12.633  fft= 48x 48x 48(    28874 waves    28874 per task)
      wavefnc cutoff= 12.633  fft= 48x 48x 48(    28874 waves    28874 per task)
      Ewald summation: cut radius=    9.55  and  1
                        madelung=    1.76011888

 technical parameters:
      translation constrained
      time step=      5.80     fictitious mass=  400000.0
      tolerance=.100E-08 (energy)   0.100E-08 (electron)   0.100E-03 (ion)
      maximum iterations =        10 (    1 inner     10 outer )



          ================ iteration =========================
     >>>  ITERATION STARTED AT Sun Sep 23 13:14:59 2018  <<<
    iter.           Energy         DeltaE       DeltaRho 
    ------------------------------------------------------
       1   -0.1620744965E+02   -0.27944E+01    0.22430E-09    0.00000E+00
       2   -0.1620744966E+02   -0.65056E-09    0.20032E-09    0.00000E+00
  *** tolerance ok.     iteration terminated.
     >>>  ITERATION ENDED   AT Sun Sep 23 13:14:59 2018  <<<



          =============  summary of results  =================
 final position of ions:
        1 C    (    0.00000    0.00000   -1.88973 ) - atomic mass=  12.000          
        2 C    (    0.00000    0.00000    0.00000 ) - atomic mass=  12.000          
        3 C    (    0.00000    0.00000    1.88973 ) - atomic mass=  12.000          
        G.C.   (    0.00000    0.00000    0.00000 )
        C.O.M. (    0.00000    0.00000    0.00000 )
        number of constraints =      0 ( DOF =      3 )

 number of electrons: spin up=    6.00000  down=    6.00000 (real space)


 total     energy    :  -0.1620744966E+02 (   -0.54025E+01/ion)
 total orbital energy:  -0.6191624599E+01 (   -0.10319E+01/electron)
 hartree   energy    :   0.2600956491E+02 (    0.43349E+01/electron)
 exc-corr  energy    :  -0.5210620052E+01 (   -0.86844E+00/electron)
 ion-ion   energy    :   0.1438463994E+02 (    0.47949E+01/ion)

 K.S. kinetic energy :   0.1259231263E+02 (    0.20987E+01/electron)
 K.S. V_l  energy    :  -0.6433732634E+02 (   -0.10723E+02/electron)
 K.S. V_nl energy    :   0.3539792585E+00 (    0.58997E-01/electron)
 K.S. V_Hart energy  :   0.5201912982E+02 (    0.86699E+01/electron)
 K.S. V_xc energy    :  -0.6819719959E+01 (   -0.11366E+01/electron)
 Virial Coefficient  :  -0.1491698768E+01

 orbital energies:
    -0.2868997E+00 (  -7.807eV)
    -0.2873956E+00 (  -7.820eV)
    -0.4544070E+00 ( -12.365eV)
    -0.4544070E+00 ( -12.365eV)
    -0.7484094E+00 ( -20.365eV)
    -0.8642936E+00 ( -23.519eV)

 Total PSPW energy   :  -0.1620744966E+02


=== Spin Contamination ===

 <Sexact^2> =    0.0000000000000000     
 <S^2>      =    0.0000000000000000     



== Center of Charge ==

spin up     (    0.0000,    0.0000,    0.0000 )
spin down   (    0.0000,    0.0000,    0.0000 )
     total  (    0.0000,    0.0000,    0.0000 )
ionic       (    0.0000,    0.0000,    0.0000 )


== Molecular Dipole wrt Center of Mass ==

mu   =  (   -0.0000,   -0.0000,   -0.0000 ) au
|mu| =     0.0001 au,       0.0002 Debye

 output psi filename:./eric.movecs

 -----------------
 cputime in seconds
 prologue    :   0.17803096671240226     
 main loop   :   0.12066197395324707     
 epilogue    :    3.4658193588256836E-002
 total       :   0.33335113425390617     
 cputime/step:    6.0330986976623535E-002



Time spent doing                        total          step       percent
  total time                 :   0.333403E+00  0.166702E+00       100.0 %
  i/o time                   :   0.347688E-01  0.173844E-01        10.4 %
  FFTs                       :   0.998998E-02  0.499499E-02         3.0 %
  dot products               :   0.886534E-02  0.443267E-02         2.7 %
  geodesic                   :   0.620914E-02  0.310457E-02         1.9 %
  ffm_dgemm                  :   0.456834E-02  0.228417E-02         1.4 %
  fmf_dgemm                  :   0.356221E-02  0.178110E-02         1.1 %
  mmm_dgemm                  :   0.977216E-05  0.488608E-05         0.0 %
  m_diagonalize              :   0.410080E-04  0.205040E-04         0.0 %
  exchange correlation       :   0.147190E-01  0.735950E-02         4.4 %
  local pseudopotentials     :   0.111508E-02  0.557541E-03         0.3 %
  non-local pseudopotentials :   0.142279E-01  0.711393E-02         4.3 %
  hartree potentials         :   0.578164E-03  0.289082E-03         0.2 %
  ion-ion interaction        :   0.114989E-02  0.574946E-03         0.3 %
  structure factors          :   0.231837E-02  0.115919E-02         0.7 %
  phase factors              :   0.786581E-05  0.393291E-05         0.0 %
  masking and packing        :   0.953264E-02  0.476632E-02         2.9 %
  queue fft                  :   0.534911E-01  0.267456E-01        16.0 %
  queue fft (serial)         :   0.293075E-01  0.146538E-01         8.8 %
  queue fft (message passing):   0.226642E-01  0.113321E-01         6.8 %
  MATHIAS InnerLoop          :   0.120553E+00  0.602765E-01        36.2 %
  MATHIAS Phaze              :   0.138303E-04  0.691514E-05         0.0 %
  MATHIAS Pipelined FFTs     :   0.241029E-01  0.120515E-01         7.2 %
  MATHIAS Lagrange           :   0.680590E-02  0.340295E-02         2.0 %
  MATHIAS Exch Corr          :   0.147231E-01  0.736153E-02         4.4 %
  MATHIAS Hpsi               :   0.560091E-01  0.280045E-01        16.8 %
  non-local psp FFM          :   0.424886E-02  0.212443E-02         1.3 %
  non-local psp FMF          :   0.839210E-02  0.419605E-02         2.5 %
  non-local psp FFM A        :   0.110196E-02  0.550982E-03         0.3 %
  non-local psp FFM B        :   0.227713E-02  0.113857E-02         0.7 %
     >>>  JOB COMPLETED     AT Sun Sep 23 13:14:59 2018  <<<

 Task  times  cpu:        0.3s     wall:        0.3s


                                NWChem Input Module
                                -------------------


 Summary of allocated global arrays
-----------------------------------
  No active global arrays



                         GA Statistics for process    0
                         ------------------------------

       create   destroy   get      put      acc     scatter   gather  read&inc
calls:    0        0        0        0        0        0        0        0     
number of processes/call 0.00e+00 0.00e+00 0.00e+00 0.00e+00 0.00e+00
bytes total:             0.00e+00 0.00e+00 0.00e+00 0.00e+00 0.00e+00 0.00e+00
bytes remote:            0.00e+00 0.00e+00 0.00e+00 0.00e+00 0.00e+00 0.00e+00
Max memory consumed for GA by this process: 0 bytes

MA_summarize_allocated_blocks: starting scan ...
MA_summarize_allocated_blocks: scan completed: 0 heap blocks, 0 stack blocks
MA usage statistics:

	allocation statistics:
					      heap	     stack
					      ----	     -----
	current number of blocks	         0	         0
	maximum number of blocks	       273	        19
	current total bytes		         0	         0
	maximum total bytes		  90854472	  14293160
	maximum total K-bytes		     90855	     14294
	maximum total M-bytes		        91	        15


                                     CITATION
                                     --------
                Please cite the following reference when publishing
                           results obtained with NWChem:

                 M. Valiev, E.J. Bylaska, N. Govind, K. Kowalski,
              T.P. Straatsma, H.J.J. van Dam, D. Wang, J. Nieplocha,
                        E. Apra, T.L. Windus, W.A. de Jong
                 "NWChem: a comprehensive and scalable open-source
                  solution for large scale molecular simulations"
                      Comput. Phys. Commun. 181, 1477 (2010)
                           doi:10.1016/j.cpc.2010.04.018

                                      AUTHORS
                                      -------
          E. Apra, E. J. Bylaska, W. A. de Jong, N. Govind, K. Kowalski,
       T. P. Straatsma, M. Valiev, H. J. J. van Dam, D. Wang, T. L. Windus,
        J. Hammond, J. Autschbach, K. Bhaskaran-Nair, J. Brabec, K. Lopata,
    S. A. Fischer, S. Krishnamoorthy, M. Jacquelin, W. Ma, M. Klemm, O. Villa,
      Y. Chen, V. Anisimov, F. Aquino, S. Hirata, M. T. Hackler, V. Konjkov,
            D. Mejia-Rodriguez, T. Risthaus, M. Malagoli, A. Marenich,
   A. Otero-de-la-Roza, J. Mullin, P. Nichols, R. Peverati, J. Pittner, Y. Zhao,
        P.-D. Fan, A. Fonari, M. J. Williamson, R. J. Harrison, J. R. Rehr,
      M. Dupuis, D. Silverstein, D. M. A. Smith, J. Nieplocha, V. Tipparaju,
    M. Krishnan, B. E. Van Kuiken, A. Vazquez-Mayagoitia, L. Jensen, M. Swart,
      Q. Wu, T. Van Voorhis, A. A. Auer, M. Nooijen, L. D. Crosby, E. Brown,
      G. Cisneros, G. I. Fann, H. Fruchtl, J. Garza, K. Hirao, R. A. Kendall,
      J. A. Nichols, K. Tsemekhman, K. Wolinski, J. Anchell, D. E. Bernholdt,
      P. Borowski, T. Clark, D. Clerc, H. Dachsel, M. J. O. Deegan, K. Dyall,
    D. Elwood, E. Glendening, M. Gutowski, A. C. Hess, J. Jaffe, B. G. Johnson,
     J. Ju, R. Kobayashi, R. Kutteh, Z. Lin, R. Littlefield, X. Long, B. Meng,
      T. Nakajima, S. Niu, L. Pollack, M. Rosing, K. Glaesemann, G. Sandrone,
      M. Stave, H. Taylor, G. Thomas, J. H. van Lenthe, A. T. Wong, Z. Zhang.

 Total times  cpu:        4.7s     wall:        4.7s
