pwdft (NWChemEx) - Version 1.0

============================== echo of input deck ==============================
Title "CCl4 Born test"
echo

memory 1900 mb
start ccl4-born


geometry units angstroms noautosym
Cl   -0.302804 1.234427 1.298566
C   0.075206 0.050102 0.012408
Cl   1.335825 -1.079122 0.593930
Cl   0.670364 0.912773 -1.436680
Cl   -1.401717 -0.869000 -0.404717
end

nwpw

   simulation_cell
     SC 26.0
     boundary_conditions aperiodic
   end
   xc pbe
   cutoff 30.0
   2d-hcurve

   born relax on
end

task pspw energy
================================================================================

              NorthwestEx Computational Chemistry Package 1.0.0
           --------------------------------------------------------

                  Pacific Northwest National Laboratory
                           Richland, WA 99354

                         Copyright (c) 2020
                  Pacific Northwest National Laboratory
                       Battelle Memorial Institute

        NWChemEx is an open-source computational chemistry package
                   distributed under the terms of the
                 Educational Community License (ECL) 2.0
        A copy of the license is included with this distribution
                         in the LICENSE.TXT file

                             ACKNOWLEDGMENT
                             --------------

       This software and its documentation were developed at the
       Pacific Northwest National Laboratory, a multiprogram
       national laboratory, operated for the U.S. Department of Energy
       by Battelle under Contract Number DE-AC05-76RL01830. Support
       for this work was provided by the Department of Energy 
       Office of Advanced Scientific Computing and the Office of Basic
       Energy Sciences.

       Job information
       ---------------
       program               = pwdft (NWChemEx)
       build configured      = Sun Jun 18 21:05:32 2023
       source                = /Users/bylaska/Codes/PWDFT/Nwpw
       version               = 1.0
       default psp libraries = /Users/bylaska/Codes/PWDFT/Nwpw/libraryps

       date                  = Sat Jul  8 16:47:05 2023
       nproc                 = 6
       input                 = ccl4_born_test.nw



First rtdbstr={"constraints":null,"current_task":"task pspw energy","dbname":"ccl4-born","driver":null,"foundtask":true,"geometries":{"geometry":{"autosym":0,"autoz":0,"center":1,"charges":[17.0,6.0,17.0,17.0,17.0],"conv":1.88972598858,"coords":[-0.7147025484445684,2.2386284193123527,2.4298479009292984,-0.0003672275014425519,0.000578687887344137,-0.0006382970907775065,2.3818572584962885,-2.1333452518409173,1.098278939240241,1.124318312409853,1.630790496181641,-2.739017550430192,-2.791347003732982,-1.736272247668511,-0.7888902500772099],"masses":[34.96885,12.0,34.96885,34.96885,34.96885],"nion":5,"symbols":["Cl","C","Cl","Cl","Cl"],"unita":[1.0,0.0,0.0,0.0,1.0,0.0,0.0,0.0,1.0],"velocities":[0.0,0.0,0.0,0.0,0.0,0.0,0.0,0.0,0.0,0.0,0.0,0.0,0.0,0.0,0.0]}},"nwinput_cur":29,"nwinput_lines":["Title \"CCl4 Born test\"","echo","","memory 1900 mb","start ccl4-born","","","geometry units angstroms noautosym","Cl   -0.302804 1.234427 1.298566","C   0.075206 0.050102 0.012408","Cl   1.335825 -1.079122 0.593930","Cl   0.670364 0.912773 -1.436680","Cl   -1.401717 -0.869000 -0.404717","end","","nwpw","","   simulation_cell","     SC 26.0","     boundary_conditions aperiodic","   end","   xc pbe","   cutoff 30.0","   2d-hcurve","","   born relax on","end","","task pspw energy",""],"nwinput_nlines":30,"nwpw":{"born":{"on":true,"relax":true},"cutoff":[30.0,60.0],"mapping":3,"simulation_cell":{"boundary_conditions":"aperiodic","unita":[26.0,0.0,0.0,0.0,26.0,0.0,0.0,0.0,26.0]},"xc":"pbe"},"permanent_dir":".","psp_library_dir":"","scratch_dir":".","title":"CCl4 Born test"}
First task=1


Running staged energy optimization - lowlevel_rtdbstr = {"constraints":null,"current_task":"energy","dbname":"ccl4-born","driver":null,"foundtask":true,"geometries":{"geometry":{"autosym":0,"autoz":0,"center":1,"charges":[17.0,6.0,17.0,17.0,17.0],"conv":1.88972598858,"coords":[-0.7147025484445684,2.2386284193123527,2.4298479009292984,-0.0003672275014425519,0.000578687887344137,-0.0006382970907775065,2.3818572584962885,-2.1333452518409173,1.098278939240241,1.124318312409853,1.630790496181641,-2.739017550430192,-2.791347003732982,-1.736272247668511,-0.7888902500772099],"masses":[34.96885,12.0,34.96885,34.96885,34.96885],"nion":5,"symbols":["Cl","C","Cl","Cl","Cl"],"unita":[1.0,0.0,0.0,0.0,1.0,0.0,0.0,0.0,1.0],"velocities":[0.0,0.0,0.0,0.0,0.0,0.0,0.0,0.0,0.0,0.0,0.0,0.0,0.0,0.0,0.0]}},"nwinput_cur":29,"nwinput_lines":["Title \"CCl4 Born test\"","echo","","memory 1900 mb","start ccl4-born","","","geometry units angstroms noautosym","Cl   -0.302804 1.234427 1.298566","C   0.075206 0.050102 0.012408","Cl   1.335825 -1.079122 0.593930","Cl   0.670364 0.912773 -1.436680","Cl   -1.401717 -0.869000 -0.404717","end","","nwpw","","   simulation_cell","     SC 26.0","     boundary_conditions aperiodic","   end","   xc pbe","   cutoff 30.0","   2d-hcurve","","   born relax on","end","","task pspw energy",""],"nwinput_nlines":30,"nwpw":{"born":{"on":true,"relax":true},"cutoff":[10.0,20.0],"mapping":3,"simulation_cell":{"boundary_conditions":"aperiodic","unita":[26.0,0.0,0.0,0.0,26.0,0.0,0.0,0.0,26.0]},"xc":"pbe"},"permanent_dir":".","psp_library_dir":"","scratch_dir":".","title":"CCl4 Born test"}

          *****************************************************
          *                                                   *
          *               PWDFT PSPW Calculation              *
          *                                                   *
          *  [ (Grassmann/Stiefel manifold implementation) ]  *
          *  [              C++ implementation             ]  *
          *                                                   *
          *              version #7.00   02/27/21             *
          *                                                   *
          *    This code was developed by Eric J. Bylaska,    *
          *    Abhishek Bagusetty, David H. Bross, ...        *
          *                                                   *
          *****************************************************
          >>> job started at       Sat Jul  8 16:47:05 2023 <<<

 psp_library: /Users/bylaska/Codes/PWDFT/Nwpw/libraryps



 initializing nwpw_APC object
 ----------------------------
 nga =   3 ngs =    15
 Gc  =   2.50000
 APC gamma: 0 0.60000
 APC gamma: 1 0.90000
 APC gamma: 2 1.35000
 - self-consistent

 extended Born solvation model:
    G.D. Hawkins, C.R. Cramer, D.G. Truhlar (1995) Pairwise solute descreening of solue
     charge from a dielectric medium, Chem. Phys. Lett., vol 246, pages 122-129.

    dielectric constant=  78.400000
    dielectric rcut    =   0.100000
    self-consistent solvation
    generalized Born radii:
      - Born radius: Cl  - a(   1) =  2.807 Angstroms (1.17*vdw radius= 2.050 Angstroms)
      - Born radius: C   - a(   2) =  2.870 Angstroms (1.17*vdw radius= 2.000 Angstroms)
      - Born radius: Cl  - a(   3) =  2.807 Angstroms (1.17*vdw radius= 2.050 Angstroms)
      - Born radius: Cl  - a(   4) =  2.807 Angstroms (1.17*vdw radius= 2.050 Angstroms)
      - Born radius: Cl  - a(   5) =  2.807 Angstroms (1.17*vdw radius= 2.050 Angstroms)

 writing formatted psp filename: ./Cl.vpp

 writing formatted psp filename: ./C.vpp
 generating random psi from scratch
 Warning - Gram-Schmidt being performed on psi2
         - exact norm = 32.00000 norm=42.51176 corrected norm=32.00000 (error=10.51176)

     ===================  summary of input  =======================

 input psi filename: ./ccl4-born.movecs

 number of processors used: 6
 processor grid           : 6 x1
 parallel mapping         : 2d-hcurve
 parallel mapping         : balanced

 options:
   boundary conditions  = aperiodic
   electron spin        = restricted
   exchange-correlation = PBE96 (White and Bird) parameterization

 elements involved in the cluster:
      1: Cl  valence charge =  7.0  lmax =2
             comment = Troullier-Martins pseudopotential
             pseudopotential type            =  0
             highest angular component       =  2
             local potential used            =  2
             number of non-local projections =  4
             aperiodic cutoff radius         =  1.000
             semicore corrections inlcuded   =  1.300 (radius) 0.283 (charge)
             cutoff =    1.340   1.450   1.450
      2: C   valence charge =  4.0  lmax =2
             comment = Parameterized (J.Phys.Chem., vol 100, page 6966) Hamman psp 
             pseudopotential type            =  0
             highest angular component       =  2
             local potential used            =  2
             number of non-local projections =  4
             aperiodic cutoff radius         =  1.000
             cutoff =    0.800   0.850   0.850

 total charge =   0.000

 atom composition:
   Cl : 4   C : 1

 initial ion positions (au):
   1 Cl	(   -0.71470    2.23863    2.42985 ) - atomic mass = 34.969
   2 C	(   -0.00037    0.00058   -0.00064 ) - atomic mass = 12.000
   3 Cl	(    2.38186   -2.13335    1.09828 ) - atomic mass = 34.969
   4 Cl	(    1.12432    1.63079   -2.73902 ) - atomic mass = 34.969
   5 Cl	(   -2.79135   -1.73627   -0.78889 ) - atomic mass = 34.969
   G.C.	(   -0.00005    0.00008   -0.00008 )
 C.O.M.	(   -0.00000   -0.00000   -0.00000 )

 number of electrons: spin up =    16 (  16 per task) down =    16 (  16 per task)

 supercell:
      volume =   17576.00
      lattice:    a1 = <   26.000    0.000    0.000 >
                  a2 = <    0.000   26.000    0.000 >
                  a3 = <    0.000    0.000   26.000 >
      reciprocal: b1 = <    0.242    0.000    0.000 >
                  b2 = <    0.000    0.242    0.000 >
                  b3 = <    0.000    0.000    0.242 >
      lattice:    a =      26.000 b =     26.000 c =      26.000
                  alpha =  90.000 beta =  90.000 gamma =  90.000
      density cutoff = 20.000 fft =  54 x   54 x   54  (   37447 waves     6241 per task)
      wavefnc cutoff = 10.000 fft =  54 x   54 x   54  (   13373 waves     2233 per task)


 technical parameters:
      fixed step: time step =        5.80  ficticious mass =   400000.00
      tolerance =   1.000e-07 (energy)    1.000e-07 (density)    1.000e-04 (ion)
      max iterations =       1000 (   10 inner   100 outer)
      minimizer = Grassmann conjugate gradient



     =========== Grassmann conjugate gradient iteration ===========
          >>> iteration started at Sat Jul  8 16:47:05 2023  <<<
     iter.                   Energy          DeltaE        DeltaRho
     --------------------------------------------------------------
        - 15 steepest descent iterations performed
        10      -5.288713497742e+01   -2.882553e+00    2.048347e-02
        - 10 steepest descent iterations performed
        20      -6.309406145993e+01   -3.645667e-01    1.676308e-03
        - 10 steepest descent iterations performed
        30      -6.546855775627e+01   -8.772817e-02    4.706493e-04
        - 10 steepest descent iterations performed
        40      -6.612978210070e+01   -1.500597e-02    3.131492e-05
        - 10 steepest descent iterations performed
        50      -6.627523934232e+01   -3.135868e-04    1.883063e-06
        60      -6.627812911292e+01   -3.644757e-06    1.376766e-07
        70      -6.627813258715e+01   -7.282549e-08    1.932027e-09
     *** tolerance ok. iteration terminated
          >>> iteration ended at   Sat Jul  8 16:47:14 2023  <<<

     =============  energy results (Molecule object)  =============


 number of electrons: spin up=    16.00000  down=    16.00000 (real space)


 APC Potential:
   0.003987989  -0.011029438   0.004030076   0.003977493   0.004014407

 APC Point Charges:
  -0.016992810   0.068395715  -0.017305726  -0.016912072  -0.017185107


 total     energy    :   -6.6278132587e+01 (   -1.32556e+01 /ion)
 total orbital energy:   -1.5602675269e+01 (   -9.75167e-01 /electron)
 hartree energy      :    1.4087396268e+02 (    8.80462e+00 /electron)
 exc-corr energy     :   -1.4013277578e+01 (   -8.75830e-01 /electron)
 APC energy          :    5.1406624616e-04 (    1.02813e-04 /ion)
 ion-ion energy      :    8.6388552456e+01 (    1.72777e+01 /ion)

 kinetic (planewave) :    2.5526276711e+01 (    1.59539e+00 /electron)
 V_local (planewave) :   -3.2044533118e+02 (   -2.00278e+01 /electron)
 V_nl    (planewave) :    1.4980322510e+01 (    9.36270e-01 /electron)
 V_Coul  (planewave) :    2.8174792537e+02 (    1.76092e+01 /electron)
 V_xc    (planewave) :   -1.7411868681e+01 (   -1.08824e+00 /electron)
 K.S. V_APC energy   :   -4.1084774036e-01 (   -8.21695e-02 /ion)
 Viral Coefficient   :   -1.6112397607e+00

 orbital energy:
    -2.9146262e-01 (  -7.931eV)
    -2.9147667e-01 (  -7.932eV)
    -2.9154027e-01 (  -7.933eV)
    -3.2508387e-01 (  -8.846eV)
    -3.2509279e-01 (  -8.846eV)
    -3.2512974e-01 (  -8.847eV)
    -3.4668311e-01 (  -9.434eV)
    -3.4669464e-01 (  -9.434eV)
    -4.6633599e-01 ( -12.690eV)
    -4.6643016e-01 ( -12.692eV)
    -4.6646274e-01 ( -12.693eV)
    -5.8509499e-01 ( -15.921eV)
    -7.8817771e-01 ( -21.448eV)
    -7.8829680e-01 ( -21.451eV)
    -7.8842108e-01 ( -21.454eV)
    -9.0895444e-01 ( -24.734eV)

 == Center of Charge ==

 spin up    = (    0.0000    -0.0000    -0.0000 )
 spin down  = (    0.0000    -0.0000    -0.0000 )
      total = (    0.0000    -0.0000    -0.0000 )
 ionic      = (   -0.0000     0.0000    -0.0000 )

 == Molecular Dipole wrt Center of Mass ==

 mu   = (   -0.0010     0.0015    -0.0008 ) au
 |mu| =      0.0019 au (     0.0049 Debye )


*************************************************************
**                                                         **
**          PSPW Atomic Point Charge (APC) Analysis        **
**                                                         **
**   Point charge analysis based on paper by P.E. Blochl   **
**         (J. Chem. Phys. vol 103, page 7422, 1995)       **
**                                                         **
*************************************************************

 nwpw_APC object
 ---------------
 nga =   3 ngs =    15
 Gc  =   2.50000
 APC gamma: 0 0.60000
 APC gamma: 1 0.90000
 APC gamma: 2 1.35000
 - self-consistent

 APC Potential:
   0.003987989  -0.011029438   0.004030076   0.003977493   0.004014407

 APC Point Charges:
  -0.016992810   0.068395715  -0.017305726  -0.016912072  -0.017185107


 charge analysis on each atom
 ----------------------------

      no  atom        Qelc        Qion      Qtotal
   -----  ----     -------     -------     -------
       1    Cl      -7.017       7.000      -0.017
       2    C       -3.932       4.000       0.068
       3    Cl      -7.017       7.000      -0.017
       4    Cl      -7.017       7.000      -0.017
       5    Cl      -7.017       7.000      -0.017
       Total Q     -32.000      32.000      -0.000


 Gaussian coefficients of model density
 --------------------------------------

      no  atom     g=0.000     g=0.600     g=0.900     g=1.350
   -----  ----     -------     -------     -------     -------
       1    Cl       7.000      -3.193       7.677     -11.501
       2     C       4.000      -4.569       8.436      -7.799
       3    Cl       7.000      -3.193       7.678     -11.502
       4    Cl       7.000      -3.193       7.676     -11.500
       5    Cl       7.000      -3.195       7.681     -11.503


 generalized Born Solvation
 --------------------------
   - Radii defined by G.D. Hawkins, C.R. Cramer, D.G. Truhlar (1995) Pairwise
     solute descreening of solute charge from a dielectric medium, Chem. Phys. Lett.,
     vol. 246, pages 122-129.

   - dielectric constant -eps- =  78.400000
   - dielectric rcut           =   0.100000

   - Born radius: Cl  - a(   1) =    2.807 Angstroms (1.17*vdw radius=   2.050 Angstroms) - atom charge =   -0.017
   - Born radius: C   - a(   2) =    2.870 Angstroms (1.17*vdw radius=   2.000 Angstroms) - atom charge =    0.068
   - Born radius: Cl  - a(   3) =    2.807 Angstroms (1.17*vdw radius=   2.050 Angstroms) - atom charge =   -0.017
   - Born radius: Cl  - a(   4) =    2.807 Angstroms (1.17*vdw radius=   2.050 Angstroms) - atom charge =   -0.017
   - Born radius: Cl  - a(   5) =    2.807 Angstroms (1.17*vdw radius=   2.050 Angstroms) - atom charge =   -0.017

   - Gsolvation(Born) =       0.000514 (   0.323 kcal/mol)


 output psi to filename: ./ccl4-born.movecs

 ------------------
 cputime in seconds
 prologue    : 1.400e-01
 main loop   : 8.722e+00
 epilogue    : 3.835e-02
 total       : 8.900e+00
 cputime/step: 2.850e-02 ( 306 evaluations, 69 linesearches)

 Time spent doing      total        step             percent
 total time            8.983161e+00 2.935673e-02     100.00%
 total FFT time        4.935161e+00 1.612798e-02      54.94%
 lagrange multipliers  8.139184e-02 2.659864e-04       0.91%
 local potentials      6.637159e-01 2.169006e-03       7.39%
 non-local potentials  4.286198e-01 1.400718e-03       4.77%
 ffm_dgemm             5.470456e-01 1.787731e-03       6.09%
 fmf_dgemm             2.521217e-01 8.239271e-04       2.81%
 m_diagonalize         1.835339e-03 5.997840e-06       0.02%
 mmm_multiply          5.644560e-04 1.844627e-06       0.01%
 SCVtrans              2.557600e-04 8.358170e-07       0.00%

 >>> job completed at     Sat Jul  8 16:47:14 2023 <<<

Running staged energy optimization - lowlevel_rtdbstr = {"constraints":null,"current_task":"energy","dbname":"ccl4-born","driver":null,"foundtask":true,"geometries":{"geometry":{"autosym":0,"autoz":0,"center":1,"charges":[17.0,6.0,17.0,17.0,17.0],"conv":1.88972598858,"coords":[-0.7147025484445684,2.2386284193123527,2.4298479009292984,-0.0003672275014425519,0.000578687887344137,-0.0006382970907775065,2.3818572584962885,-2.1333452518409173,1.098278939240241,1.124318312409853,1.630790496181641,-2.739017550430192,-2.791347003732982,-1.736272247668511,-0.7888902500772099],"masses":[34.96885,12.0,34.96885,34.96885,34.96885],"nion":5,"symbols":["Cl","C","Cl","Cl","Cl"],"unita":[1.0,0.0,0.0,0.0,1.0,0.0,0.0,0.0,1.0],"velocities":[0.0,0.0,0.0,0.0,0.0,0.0,0.0,0.0,0.0,0.0,0.0,0.0,0.0,0.0,0.0]}},"nwinput_cur":29,"nwinput_lines":["Title \"CCl4 Born test\"","echo","","memory 1900 mb","start ccl4-born","","","geometry units angstroms noautosym","Cl   -0.302804 1.234427 1.298566","C   0.075206 0.050102 0.012408","Cl   1.335825 -1.079122 0.593930","Cl   0.670364 0.912773 -1.436680","Cl   -1.401717 -0.869000 -0.404717","end","","nwpw","","   simulation_cell","     SC 26.0","     boundary_conditions aperiodic","   end","   xc pbe","   cutoff 30.0","   2d-hcurve","","   born relax on","end","","task pspw energy",""],"nwinput_nlines":30,"nwpw":{"born":{"on":true,"relax":true},"cutoff":[20.0,40.0],"mapping":3,"simulation_cell":{"boundary_conditions":"aperiodic","unita":[26.0,0.0,0.0,0.0,26.0,0.0,0.0,0.0,26.0]},"xc":"pbe"},"permanent_dir":".","psp_library_dir":"","scratch_dir":".","title":"CCl4 Born test"}

          *****************************************************
          *                                                   *
          *               PWDFT PSPW Calculation              *
          *                                                   *
          *  [ (Grassmann/Stiefel manifold implementation) ]  *
          *  [              C++ implementation             ]  *
          *                                                   *
          *              version #7.00   02/27/21             *
          *                                                   *
          *    This code was developed by Eric J. Bylaska,    *
          *    Abhishek Bagusetty, David H. Bross, ...        *
          *                                                   *
          *****************************************************
          >>> job started at       Sat Jul  8 16:47:14 2023 <<<

 psp_library: /Users/bylaska/Codes/PWDFT/Nwpw/libraryps



 initializing nwpw_APC object
 ----------------------------
 nga =   3 ngs =    15
 Gc  =   2.50000
 APC gamma: 0 0.60000
 APC gamma: 1 0.90000
 APC gamma: 2 1.35000
 - self-consistent

 extended Born solvation model:
    G.D. Hawkins, C.R. Cramer, D.G. Truhlar (1995) Pairwise solute descreening of solue
     charge from a dielectric medium, Chem. Phys. Lett., vol 246, pages 122-129.

    dielectric constant=  78.400000
    dielectric rcut    =   0.100000
    self-consistent solvation
    generalized Born radii:
      - Born radius: Cl  - a(   1) =  2.807 Angstroms (1.17*vdw radius= 2.050 Angstroms)
      - Born radius: C   - a(   2) =  2.870 Angstroms (1.17*vdw radius= 2.000 Angstroms)
      - Born radius: Cl  - a(   3) =  2.807 Angstroms (1.17*vdw radius= 2.050 Angstroms)
      - Born radius: Cl  - a(   4) =  2.807 Angstroms (1.17*vdw radius= 2.050 Angstroms)
      - Born radius: Cl  - a(   5) =  2.807 Angstroms (1.17*vdw radius= 2.050 Angstroms)

 writing formatted psp filename: ./Cl.vpp

 writing formatted psp filename: ./C.vpp
 psi grids are being converted: 
 -----------------------------: 
 converting .... psi:1 spin:1
 converting .... psi:2 spin:1
 converting .... psi:3 spin:1
 converting .... psi:4 spin:1
 converting .... psi:5 spin:1
 converting .... psi:6 spin:1
 converting .... psi:7 spin:1
 converting .... psi:8 spin:1
 converting .... psi:9 spin:1
 converting .... psi:10 spin:1
 converting .... psi:11 spin:1
 converting .... psi:12 spin:1
 converting .... psi:13 spin:1
 converting .... psi:14 spin:1
 converting .... psi:15 spin:1
 converting .... psi:16 spin:1

 input psi exists, reading from file: ./ccl4-born.movecs

     ===================  summary of input  =======================

 input psi filename: ./ccl4-born.movecs

 number of processors used: 6
 processor grid           : 6 x1
 parallel mapping         : 2d-hcurve
 parallel mapping         : balanced

 options:
   boundary conditions  = aperiodic
   electron spin        = restricted
   exchange-correlation = PBE96 (White and Bird) parameterization

 elements involved in the cluster:
      1: Cl  valence charge =  7.0  lmax =2
             comment = Troullier-Martins pseudopotential
             pseudopotential type            =  0
             highest angular component       =  2
             local potential used            =  2
             number of non-local projections =  4
             aperiodic cutoff radius         =  1.000
             semicore corrections inlcuded   =  1.300 (radius) 0.284 (charge)
             cutoff =    1.340   1.450   1.450
      2: C   valence charge =  4.0  lmax =2
             comment = Parameterized (J.Phys.Chem., vol 100, page 6966) Hamman psp 
             pseudopotential type            =  0
             highest angular component       =  2
             local potential used            =  2
             number of non-local projections =  4
             aperiodic cutoff radius         =  1.000
             cutoff =    0.800   0.850   0.850

 total charge =   0.000

 atom composition:
   Cl : 4   C : 1

 initial ion positions (au):
   1 Cl	(   -0.71470    2.23863    2.42985 ) - atomic mass = 34.969
   2 C	(   -0.00037    0.00058   -0.00064 ) - atomic mass = 12.000
   3 Cl	(    2.38186   -2.13335    1.09828 ) - atomic mass = 34.969
   4 Cl	(    1.12432    1.63079   -2.73902 ) - atomic mass = 34.969
   5 Cl	(   -2.79135   -1.73627   -0.78889 ) - atomic mass = 34.969
   G.C.	(   -0.00005    0.00008   -0.00008 )
 C.O.M.	(   -0.00000   -0.00000   -0.00000 )

 number of electrons: spin up =    16 (  16 per task) down =    16 (  16 per task)

 supercell:
      volume =   17576.00
      lattice:    a1 = <   26.000    0.000    0.000 >
                  a2 = <    0.000   26.000    0.000 >
                  a3 = <    0.000    0.000   26.000 >
      reciprocal: b1 = <    0.242    0.000    0.000 >
                  b2 = <    0.000    0.242    0.000 >
                  b3 = <    0.000    0.000    0.242 >
      lattice:    a =      26.000 b =     26.000 c =      26.000
                  alpha =  90.000 beta =  90.000 gamma =  90.000
      density cutoff = 40.000 fft =  80 x   80 x   80  (  106048 waves    17674 per task)
      wavefnc cutoff = 20.000 fft =  80 x   80 x   80  (   37447 waves     6241 per task)


 technical parameters:
      fixed step: time step =        5.80  ficticious mass =   400000.00
      tolerance =   1.000e-07 (energy)    1.000e-07 (density)    1.000e-04 (ion)
      max iterations =       1000 (   10 inner   100 outer)
      minimizer = Grassmann conjugate gradient



     =========== Grassmann conjugate gradient iteration ===========
          >>> iteration started at Sat Jul  8 16:47:15 2023  <<<
     iter.                   Energy          DeltaE        DeltaRho
     --------------------------------------------------------------
        - 15 steepest descent iterations performed
        10      -6.644544758572e+01   -9.766506e-05    1.596692e-06
        20      -6.644557172054e+01   -5.300591e-07    4.297346e-09
        30      -6.644557322609e+01   -7.455571e-08    9.239621e-10
     *** tolerance ok. iteration terminated
          >>> iteration ended at   Sat Jul  8 16:47:24 2023  <<<

     =============  energy results (Molecule object)  =============


 number of electrons: spin up=    16.00000  down=    16.00000 (real space)


 APC Potential:
   0.003381557  -0.009339216   0.003402826   0.003367542   0.003404569

 APC Point Charges:
  -0.014423127   0.057914311  -0.014583206  -0.014317330  -0.014590648


 total     energy    :   -6.6445573226e+01 (   -1.32891e+01 /ion)
 total orbital energy:   -1.5565038601e+01 (   -9.72815e-01 /electron)
 hartree energy      :    1.4102486604e+02 (    8.81405e+00 /electron)
 exc-corr energy     :   -1.4057189903e+01 (   -8.78574e-01 /electron)
 APC energy          :    3.6858003310e-04 (    7.37160e-05 /ion)
 ion-ion energy      :    8.6388552456e+01 (    1.72777e+01 /ion)

 kinetic (planewave) :    2.6063650649e+01 (    1.62898e+00 /electron)
 V_local (planewave) :   -3.2018658375e+02 (   -2.00117e+01 /electron)
 V_nl    (planewave) :    1.3972742378e+01 (    8.73296e-01 /electron)
 V_Coul  (planewave) :    2.8204973208e+02 (    1.76281e+01 /electron)
 V_xc    (planewave) :   -1.7464579952e+01 (   -1.09154e+00 /electron)
 K.S. V_APC energy   :   -3.4802032721e-01 (   -6.96041e-02 /ion)
 Viral Coefficient   :   -1.5971933406e+00

 orbital energy:
    -2.8913201e-01 (  -7.868eV)
    -2.8915747e-01 (  -7.868eV)
    -2.8918728e-01 (  -7.869eV)
    -3.2233080e-01 (  -8.771eV)
    -3.2235080e-01 (  -8.772eV)
    -3.2236310e-01 (  -8.772eV)
    -3.4366856e-01 (  -9.352eV)
    -3.4367166e-01 (  -9.352eV)
    -4.6653850e-01 ( -12.695eV)
    -4.6659365e-01 ( -12.697eV)
    -4.6663299e-01 ( -12.698eV)
    -5.8283618e-01 ( -15.860eV)
    -7.9128919e-01 ( -21.532eV)
    -7.9141664e-01 ( -21.536eV)
    -7.9150433e-01 ( -21.538eV)
    -9.0384614e-01 ( -24.595eV)

 == Center of Charge ==

 spin up    = (    0.0000     0.0000    -0.0000 )
 spin down  = (    0.0000     0.0000    -0.0000 )
      total = (    0.0000     0.0000    -0.0000 )
 ionic      = (   -0.0000     0.0000    -0.0000 )

 == Molecular Dipole wrt Center of Mass ==

 mu   = (   -0.0007     0.0008    -0.0007 ) au
 |mu| =      0.0013 au (     0.0032 Debye )


*************************************************************
**                                                         **
**          PSPW Atomic Point Charge (APC) Analysis        **
**                                                         **
**   Point charge analysis based on paper by P.E. Blochl   **
**         (J. Chem. Phys. vol 103, page 7422, 1995)       **
**                                                         **
*************************************************************

 nwpw_APC object
 ---------------
 nga =   3 ngs =    15
 Gc  =   2.50000
 APC gamma: 0 0.60000
 APC gamma: 1 0.90000
 APC gamma: 2 1.35000
 - self-consistent

 APC Potential:
   0.003381557  -0.009339216   0.003402826   0.003367542   0.003404569

 APC Point Charges:
  -0.014423127   0.057914311  -0.014583206  -0.014317330  -0.014590648


 charge analysis on each atom
 ----------------------------

      no  atom        Qelc        Qion      Qtotal
   -----  ----     -------     -------     -------
       1    Cl      -7.014       7.000      -0.014
       2    C       -3.942       4.000       0.058
       3    Cl      -7.015       7.000      -0.015
       4    Cl      -7.014       7.000      -0.014
       5    Cl      -7.015       7.000      -0.015
       Total Q     -32.000      32.000      -0.000


 Gaussian coefficients of model density
 --------------------------------------

      no  atom     g=0.000     g=0.600     g=0.900     g=1.350
   -----  ----     -------     -------     -------     -------
       1    Cl       7.000      -3.123       7.552     -11.444
       2     C       4.000      -4.604       8.321      -7.659
       3    Cl       7.000      -3.122       7.551     -11.444
       4    Cl       7.000      -3.122       7.551     -11.443
       5    Cl       7.000      -3.125       7.556     -11.446


 generalized Born Solvation
 --------------------------
   - Radii defined by G.D. Hawkins, C.R. Cramer, D.G. Truhlar (1995) Pairwise
     solute descreening of solute charge from a dielectric medium, Chem. Phys. Lett.,
     vol. 246, pages 122-129.

   - dielectric constant -eps- =  78.400000
   - dielectric rcut           =   0.100000

   - Born radius: Cl  - a(   1) =    2.807 Angstroms (1.17*vdw radius=   2.050 Angstroms) - atom charge =   -0.014
   - Born radius: C   - a(   2) =    2.870 Angstroms (1.17*vdw radius=   2.000 Angstroms) - atom charge =    0.058
   - Born radius: Cl  - a(   3) =    2.807 Angstroms (1.17*vdw radius=   2.050 Angstroms) - atom charge =   -0.015
   - Born radius: Cl  - a(   4) =    2.807 Angstroms (1.17*vdw radius=   2.050 Angstroms) - atom charge =   -0.014
   - Born radius: Cl  - a(   5) =    2.807 Angstroms (1.17*vdw radius=   2.050 Angstroms) - atom charge =   -0.015

   - Gsolvation(Born) =       0.000369 (   0.231 kcal/mol)


 output psi to filename: ./ccl4-born.movecs

 ------------------
 cputime in seconds
 prologue    : 4.328e-01
 main loop   : 9.168e+00
 epilogue    : 7.252e-02
 total       : 9.674e+00
 cputime/step: 9.261e-02 ( 99 evaluations, 27 linesearches)

 Time spent doing      total        step             percent
 total time            1.866397e+01 1.885250e-01     100.00%
 total FFT time        1.017469e+01 1.027746e-01      54.52%
 lagrange multipliers  1.463369e-01 1.478151e-03       0.78%
 local potentials      1.359031e+00 1.372759e-02       7.28%
 non-local potentials  8.789988e-01 8.878776e-03       4.71%
 ffm_dgemm             1.071112e+00 1.081931e-02       5.74%
 fmf_dgemm             6.090790e-01 6.152313e-03       3.26%
 m_diagonalize         2.517758e-03 2.543190e-05       0.01%
 mmm_multiply          7.529530e-04 7.605586e-06       0.00%
 SCVtrans              3.838370e-04 3.877141e-06       0.00%

 >>> job completed at     Sat Jul  8 16:47:24 2023 <<<

Running energy calculation - rtdbstr = {"constraints":null,"current_task":"task pspw energy","dbname":"ccl4-born","driver":null,"foundtask":true,"geometries":{"geometry":{"autosym":0,"autoz":0,"center":1,"charges":[17.0,6.0,17.0,17.0,17.0],"conv":1.88972598858,"coords":[-0.7147025484445684,2.2386284193123527,2.4298479009292984,-0.0003672275014425519,0.000578687887344137,-0.0006382970907775065,2.3818572584962885,-2.1333452518409173,1.098278939240241,1.124318312409853,1.630790496181641,-2.739017550430192,-2.791347003732982,-1.736272247668511,-0.7888902500772099],"masses":[34.96885,12.0,34.96885,34.96885,34.96885],"nion":5,"symbols":["Cl","C","Cl","Cl","Cl"],"unita":[1.0,0.0,0.0,0.0,1.0,0.0,0.0,0.0,1.0],"velocities":[0.0,0.0,0.0,0.0,0.0,0.0,0.0,0.0,0.0,0.0,0.0,0.0,0.0,0.0,0.0]}},"nwinput_cur":29,"nwinput_lines":["Title \"CCl4 Born test\"","echo","","memory 1900 mb","start ccl4-born","","","geometry units angstroms noautosym","Cl   -0.302804 1.234427 1.298566","C   0.075206 0.050102 0.012408","Cl   1.335825 -1.079122 0.593930","Cl   0.670364 0.912773 -1.436680","Cl   -1.401717 -0.869000 -0.404717","end","","nwpw","","   simulation_cell","     SC 26.0","     boundary_conditions aperiodic","   end","   xc pbe","   cutoff 30.0","   2d-hcurve","","   born relax on","end","","task pspw energy",""],"nwinput_nlines":30,"nwpw":{"born":{"on":true,"relax":true},"cutoff":[30.0,60.0],"mapping":3,"simulation_cell":{"boundary_conditions":"aperiodic","unita":[26.0,0.0,0.0,0.0,26.0,0.0,0.0,0.0,26.0]},"xc":"pbe"},"permanent_dir":".","psp_library_dir":"","scratch_dir":".","title":"CCl4 Born test"}

          *****************************************************
          *                                                   *
          *               PWDFT PSPW Calculation              *
          *                                                   *
          *  [ (Grassmann/Stiefel manifold implementation) ]  *
          *  [              C++ implementation             ]  *
          *                                                   *
          *              version #7.00   02/27/21             *
          *                                                   *
          *    This code was developed by Eric J. Bylaska,    *
          *    Abhishek Bagusetty, David H. Bross, ...        *
          *                                                   *
          *****************************************************
          >>> job started at       Sat Jul  8 16:47:24 2023 <<<

 psp_library: /Users/bylaska/Codes/PWDFT/Nwpw/libraryps



 initializing nwpw_APC object
 ----------------------------
 nga =   3 ngs =    15
 Gc  =   2.50000
 APC gamma: 0 0.60000
 APC gamma: 1 0.90000
 APC gamma: 2 1.35000
 - self-consistent

 extended Born solvation model:
    G.D. Hawkins, C.R. Cramer, D.G. Truhlar (1995) Pairwise solute descreening of solue
     charge from a dielectric medium, Chem. Phys. Lett., vol 246, pages 122-129.

    dielectric constant=  78.400000
    dielectric rcut    =   0.100000
    self-consistent solvation
    generalized Born radii:
      - Born radius: Cl  - a(   1) =  2.807 Angstroms (1.17*vdw radius= 2.050 Angstroms)
      - Born radius: C   - a(   2) =  2.870 Angstroms (1.17*vdw radius= 2.000 Angstroms)
      - Born radius: Cl  - a(   3) =  2.807 Angstroms (1.17*vdw radius= 2.050 Angstroms)
      - Born radius: Cl  - a(   4) =  2.807 Angstroms (1.17*vdw radius= 2.050 Angstroms)
      - Born radius: Cl  - a(   5) =  2.807 Angstroms (1.17*vdw radius= 2.050 Angstroms)

 writing formatted psp filename: ./Cl.vpp

 writing formatted psp filename: ./C.vpp
 psi grids are being converted: 
 -----------------------------: 
 converting .... psi:1 spin:1
 converting .... psi:2 spin:1
 converting .... psi:3 spin:1
 converting .... psi:4 spin:1
 converting .... psi:5 spin:1
 converting .... psi:6 spin:1
 converting .... psi:7 spin:1
 converting .... psi:8 spin:1
 converting .... psi:9 spin:1
 converting .... psi:10 spin:1
 converting .... psi:11 spin:1
 converting .... psi:12 spin:1
 converting .... psi:13 spin:1
 converting .... psi:14 spin:1
 converting .... psi:15 spin:1
 converting .... psi:16 spin:1

 input psi exists, reading from file: ./ccl4-born.movecs

     ===================  summary of input  =======================

 input psi filename: ./ccl4-born.movecs

 number of processors used: 6
 processor grid           : 6 x1
 parallel mapping         : 2d-hcurve
 parallel mapping         : balanced

 options:
   boundary conditions  = aperiodic
   electron spin        = restricted
   exchange-correlation = PBE96 (White and Bird) parameterization

 elements involved in the cluster:
      1: Cl  valence charge =  7.0  lmax =2
             comment = Troullier-Martins pseudopotential
             pseudopotential type            =  0
             highest angular component       =  2
             local potential used            =  2
             number of non-local projections =  4
             aperiodic cutoff radius         =  1.000
             semicore corrections inlcuded   =  1.300 (radius) 0.284 (charge)
             cutoff =    1.340   1.450   1.450
      2: C   valence charge =  4.0  lmax =2
             comment = Parameterized (J.Phys.Chem., vol 100, page 6966) Hamman psp 
             pseudopotential type            =  0
             highest angular component       =  2
             local potential used            =  2
             number of non-local projections =  4
             aperiodic cutoff radius         =  1.000
             cutoff =    0.800   0.850   0.850

 total charge =   0.000

 atom composition:
   Cl : 4   C : 1

 initial ion positions (au):
   1 Cl	(   -0.71470    2.23863    2.42985 ) - atomic mass = 34.969
   2 C	(   -0.00037    0.00058   -0.00064 ) - atomic mass = 12.000
   3 Cl	(    2.38186   -2.13335    1.09828 ) - atomic mass = 34.969
   4 Cl	(    1.12432    1.63079   -2.73902 ) - atomic mass = 34.969
   5 Cl	(   -2.79135   -1.73627   -0.78889 ) - atomic mass = 34.969
   G.C.	(   -0.00005    0.00008   -0.00008 )
 C.O.M.	(   -0.00000   -0.00000   -0.00000 )

 number of electrons: spin up =    16 (  16 per task) down =    16 (  16 per task)

 supercell:
      volume =   17576.00
      lattice:    a1 = <   26.000    0.000    0.000 >
                  a2 = <    0.000   26.000    0.000 >
                  a3 = <    0.000    0.000   26.000 >
      reciprocal: b1 = <    0.242    0.000    0.000 >
                  b2 = <    0.000    0.242    0.000 >
                  b3 = <    0.000    0.000    0.242 >
      lattice:    a =      26.000 b =     26.000 c =      26.000
                  alpha =  90.000 beta =  90.000 gamma =  90.000
      density cutoff = 60.000 fft =  96 x   96 x   96  (  195216 waves    32536 per task)
      wavefnc cutoff = 30.000 fft =  96 x   96 x   96  (   69013 waves    11502 per task)


 technical parameters:
      fixed step: time step =        5.80  ficticious mass =   400000.00
      tolerance =   1.000e-07 (energy)    1.000e-07 (density)    1.000e-04 (ion)
      max iterations =       1000 (   10 inner   100 outer)
      minimizer = Grassmann conjugate gradient



     =========== Grassmann conjugate gradient iteration ===========
          >>> iteration started at Sat Jul  8 16:47:25 2023  <<<
     iter.                   Energy          DeltaE        DeltaRho
     --------------------------------------------------------------
        - 15 steepest descent iterations performed
        10      -6.646109816127e+01   -3.706935e-06    4.313136e-08
        20      -6.646110497352e+01   -8.850407e-08    8.118523e-10
     *** tolerance ok. iteration terminated
          >>> iteration ended at   Sat Jul  8 16:47:37 2023  <<<

     =============  energy results (Molecule object)  =============


 number of electrons: spin up=    16.00000  down=    16.00000 (real space)


 APC Potential:
   0.003288653  -0.009082876   0.003309726   0.003273700   0.003312322

 APC Point Charges:
  -0.014026600   0.056324697  -0.014185112  -0.013914055  -0.014198931


 total     energy    :   -6.6461104974e+01 (   -1.32922e+01 /ion)
 total orbital energy:   -1.5556409659e+01 (   -9.72276e-01 /electron)
 hartree energy      :    1.4103924579e+02 (    8.81495e+00 /electron)
 exc-corr energy     :   -1.4056360470e+01 (   -8.78523e-01 /electron)
 APC energy          :    3.4862477047e-04 (    6.97250e-05 /ion)
 ion-ion energy      :    8.6388552456e+01 (    1.72777e+01 /ion)

 kinetic (planewave) :    2.6013161115e+01 (    1.62582e+00 /electron)
 V_local (planewave) :   -3.2025276866e+02 (   -2.00158e+01 /electron)
 V_nl    (planewave) :    1.4068228522e+01 (    8.79264e-01 /electron)
 V_Coul  (planewave) :    2.8207849158e+02 (    1.76299e+01 /electron)
 V_xc    (planewave) :   -1.7463522216e+01 (   -1.09147e+00 /electron)
 K.S. V_APC energy   :   -3.3848764837e-01 (   -6.76975e-02 /ion)
 Viral Coefficient   :   -1.5980207323e+00

 orbital energy:
    -2.8858299e-01 (  -7.853eV)
    -2.8860341e-01 (  -7.853eV)
    -2.8863312e-01 (  -7.854eV)
    -3.2176079e-01 (  -8.756eV)
    -3.2177718e-01 (  -8.756eV)
    -3.2179334e-01 (  -8.757eV)
    -3.4309967e-01 (  -9.336eV)
    -3.4310299e-01 (  -9.336eV)
    -4.6629350e-01 ( -12.689eV)
    -4.6634790e-01 ( -12.690eV)
    -4.6638714e-01 ( -12.691eV)
    -5.8305796e-01 ( -15.866eV)
    -7.9166464e-01 ( -21.542eV)
    -7.9178975e-01 ( -21.546eV)
    -7.9188166e-01 ( -21.548eV)
    -9.0342879e-01 ( -24.584eV)

 == Center of Charge ==

 spin up    = (    0.0000     0.0000    -0.0000 )
 spin down  = (    0.0000     0.0000    -0.0000 )
      total = (    0.0000     0.0000    -0.0000 )
 ionic      = (   -0.0000     0.0000    -0.0000 )

 == Molecular Dipole wrt Center of Mass ==

 mu   = (   -0.0006     0.0008    -0.0008 ) au
 |mu| =      0.0013 au (     0.0033 Debye )


*************************************************************
**                                                         **
**          PSPW Atomic Point Charge (APC) Analysis        **
**                                                         **
**   Point charge analysis based on paper by P.E. Blochl   **
**         (J. Chem. Phys. vol 103, page 7422, 1995)       **
**                                                         **
*************************************************************

 nwpw_APC object
 ---------------
 nga =   3 ngs =    15
 Gc  =   2.50000
 APC gamma: 0 0.60000
 APC gamma: 1 0.90000
 APC gamma: 2 1.35000
 - self-consistent

 APC Potential:
   0.003288653  -0.009082876   0.003309726   0.003273700   0.003312322

 APC Point Charges:
  -0.014026600   0.056324697  -0.014185112  -0.013914055  -0.014198931


 charge analysis on each atom
 ----------------------------

      no  atom        Qelc        Qion      Qtotal
   -----  ----     -------     -------     -------
       1    Cl      -7.014       7.000      -0.014
       2    C       -3.944       4.000       0.056
       3    Cl      -7.014       7.000      -0.014
       4    Cl      -7.014       7.000      -0.014
       5    Cl      -7.014       7.000      -0.014
       Total Q     -32.000      32.000       0.000


 Gaussian coefficients of model density
 --------------------------------------

      no  atom     g=0.000     g=0.600     g=0.900     g=1.350
   -----  ----     -------     -------     -------     -------
       1    Cl       7.000      -3.134       7.565     -11.445
       2     C       4.000      -4.598       8.309      -7.654
       3    Cl       7.000      -3.133       7.563     -11.445
       4    Cl       7.000      -3.133       7.564     -11.444
       5    Cl       7.000      -3.136       7.569     -11.447


 generalized Born Solvation
 --------------------------
   - Radii defined by G.D. Hawkins, C.R. Cramer, D.G. Truhlar (1995) Pairwise
     solute descreening of solute charge from a dielectric medium, Chem. Phys. Lett.,
     vol. 246, pages 122-129.

   - dielectric constant -eps- =  78.400000
   - dielectric rcut           =   0.100000

   - Born radius: Cl  - a(   1) =    2.807 Angstroms (1.17*vdw radius=   2.050 Angstroms) - atom charge =   -0.014
   - Born radius: C   - a(   2) =    2.870 Angstroms (1.17*vdw radius=   2.000 Angstroms) - atom charge =    0.056
   - Born radius: Cl  - a(   3) =    2.807 Angstroms (1.17*vdw radius=   2.050 Angstroms) - atom charge =   -0.014
   - Born radius: Cl  - a(   4) =    2.807 Angstroms (1.17*vdw radius=   2.050 Angstroms) - atom charge =   -0.014
   - Born radius: Cl  - a(   5) =    2.807 Angstroms (1.17*vdw radius=   2.050 Angstroms) - atom charge =   -0.014

   - Gsolvation(Born) =       0.000349 (   0.219 kcal/mol)


 output psi to filename: ./ccl4-born.movecs

 ------------------
 cputime in seconds
 prologue    : 6.983e-01
 main loop   : 1.250e+01
 epilogue    : 1.315e-01
 total       : 1.333e+01
 cputime/step: 1.690e-01 ( 74 evaluations, 19 linesearches)

 Time spent doing      total        step             percent
 total time            3.202064e+01 4.327114e-01     100.00%
 total FFT time        1.712579e+01 2.314297e-01      53.48%
 lagrange multipliers  2.681769e-01 3.624012e-03       0.84%
 local potentials      2.268509e+00 3.065552e-02       7.08%
 non-local potentials  1.523642e+00 2.058976e-02       4.76%
 ffm_dgemm             1.788747e+00 2.417226e-02       5.59%
 fmf_dgemm             1.095456e+00 1.480345e-02       3.42%
 m_diagonalize         3.113425e-03 4.207331e-05       0.01%
 mmm_multiply          8.919080e-04 1.205281e-05       0.00%
 SCVtrans              4.976720e-04 6.725297e-06       0.00%

 >>> job completed at     Sat Jul  8 16:47:37 2023 <<<

Next rtdbstr={"constraints":null,"current_task":"task pspw energy","dbname":"ccl4-born","driver":null,"foundtask":false,"geometries":{"geometry":{"autosym":0,"autoz":0,"center":1,"charges":[17.0,6.0,17.0,17.0,17.0],"conv":1.88972598858,"coords":[-0.7147025484445684,2.2386284193123527,2.4298479009292984,-0.0003672275014425519,0.000578687887344137,-0.0006382970907775065,2.3818572584962885,-2.1333452518409173,1.098278939240241,1.124318312409853,1.630790496181641,-2.739017550430192,-2.791347003732982,-1.736272247668511,-0.7888902500772099],"masses":[34.96885,12.0,34.96885,34.96885,34.96885],"nion":5,"symbols":["Cl","C","Cl","Cl","Cl"],"unita":[1.0,0.0,0.0,0.0,1.0,0.0,0.0,0.0,1.0],"velocities":[0.0,0.0,0.0,0.0,0.0,0.0,0.0,0.0,0.0,0.0,0.0,0.0,0.0,0.0,0.0]}},"geometry":null,"nwinput_cur":30,"nwinput_lines":["Title \"CCl4 Born test\"","echo","","memory 1900 mb","start ccl4-born","","","geometry units angstroms noautosym","Cl   -0.302804 1.234427 1.298566","C   0.075206 0.050102 0.012408","Cl   1.335825 -1.079122 0.593930","Cl   0.670364 0.912773 -1.436680","Cl   -1.401717 -0.869000 -0.404717","end","","nwpw","","   simulation_cell","     SC 26.0","     boundary_conditions aperiodic","   end","   xc pbe","   cutoff 30.0","   2d-hcurve","","   born relax on","end","","task pspw energy",""],"nwinput_nlines":30,"nwpw":{"apc":{"q":[-0.014026599500454928,0.05632469685785235,-0.01418511191864269,-0.013914054680605581,-0.014198930756796457]},"born":{"bradii":[5.304699560311394,5.423901532906964,5.304574559639308,5.304711902524932,5.304627635247878],"on":true,"relax":true,"vradii":[3.873940099437428,3.7794537555487104,3.873940099437428,3.873940099437428,3.873940099437428]},"cutoff":[30.0,60.0],"dipole":[-0.0006100264705164357,0.0008465878544663886,-0.000777151957301844],"dipole_magnitude":0.0013010797265344005,"initialize_wavefunction":null,"mapping":3,"simulation_cell":{"boundary_conditions":"aperiodic","unita":[26.0,0.0,0.0,0.0,26.0,0.0,0.0,0.0,26.0]},"xc":"pbe"},"permanent_dir":".","psp_library_dir":"","pspw":{"eigenvalues":[-0.28858299046477714,-0.28860341104607157,-0.28863311710267064,-0.3217607852092466,-0.32177718474250744,-0.32179334486019484,-0.3430996710730552,-0.34310298711587295,-0.4662934993590686,-0.4663479047799075,-0.466387137536641,-0.5830579630533501,-0.7916646354487962,-0.7917897484187503,-0.7918816634959936,-0.9034287858496359],"energies":[-66.46110497351883,-15.55640965911308,141.0392457899926,-14.05636047019059,86.38855245634765,26.01316111526144,-320.25276865988644,14.068228521813708,282.0784915799852,-17.463522216287284,0.0,0.0,0.0,0.0,0.0,0.0,0.0,0.0,0.0,0.0,0.0,0.0,0.0,0.0,0.0,0.0,0.0,0.0,0.0,0.0,0.0,0.0,0.0,0.0,0.0,0.0,0.0,0.0,0.0,0.0,0.0,0.0,0.0,0.0,0.0,0.0,0.0,0.0,0.0,0.0,0.0,0.0003486247704731511,-0.3384876483720246,0.0,0.0,0.0,0.0,0.0,0.0,0.0,0.0,1.9609956116897586e+243,6.052870644272e-310,2.999393627791262e-241,1.816673522378018e-152,9.001228471042474e+223,1.2882297539194267e-231,0.0,0.0,0.0,0.0,0.0,3.099806181337924e+169,5.88757384886297e-310,2.999393627791262e-241,5.21501748653484e-310,8.887795736585723e+252,6.964076156821255e+252,1.3184226424281038e-231,1.7e-322],"energy":-66.46110497351883},"scratch_dir":".","title":"CCl4 Born test"}
Next task =0

writing rtdbjson = ./ccl4-born.json
