 argument  1 = c2-sd.nw
  NWChem w/ OpenMP: maximum threads =   16



============================== echo of input deck ==============================
Title "Hellow Dolly"

memory 1900 mb
start c2-cpsd
echo

#psp_library_dir /home/ericpsps


geometry noautosym noautoz center
C 0 0 0
C 0 0 1.3
end

nwpw
   pseudopotentials
   C library pspw_default
   end
   simulation_cell
     SC 20.0
   end
   cutoff 5.0
end
task pspw steepest_descent

nwpw
   cutoff 20.0
end
task pspw steepest_descent
================================================================================


                                         
                                         


             Northwest Computational Chemistry Package (NWChem) 7.0.1
             --------------------------------------------------------


                    Environmental Molecular Sciences Laboratory
                       Pacific Northwest National Laboratory
                                Richland, WA 99352

                              Copyright (c) 1994-2020
                       Pacific Northwest National Laboratory
                            Battelle Memorial Institute

             NWChem is an open-source computational chemistry package
                        distributed under the terms of the
                      Educational Community License (ECL) 2.0
             A copy of the license is included with this distribution
                              in the LICENSE.TXT file

                                  ACKNOWLEDGMENT
                                  --------------

            This software and its documentation were developed at the
            EMSL at Pacific Northwest National Laboratory, a multiprogram
            national laboratory, operated for the U.S. Department of Energy
            by Battelle under Contract Number DE-AC05-76RL01830. Support
            for this work was provided by the Department of Energy Office
            of Biological and Environmental Research, Office of Basic
            Energy Sciences, and the Office of Advanced Scientific Computing.


           Job information
           ---------------

    hostname        = Erics-MacBook-Pro.local
    program         = nwchem
    date            = Sun Feb 28 11:55:32 2021

    compiled        = Fri_Feb_26_17:54:15_2021
    source          = /Users/bylaska/nwchem-releases/nwchem
    nwchem branch   = 7.0.0
    nwchem revision = nwchem_on_git-2401-g3c8969541a
    ga revision     = 5.8.0
    use scalapack   = F
    input           = c2-sd.nw
    prefix          = c2-cpsd.
    data base       = ./c2-cpsd.db
    status          = startup
    nproc           =        1
    time left       =     -1s



           Memory information
           ------------------

    heap     =   62259196 doubles =    475.0 Mbytes
    stack    =   62259201 doubles =    475.0 Mbytes
    global   =  124518400 doubles =    950.0 Mbytes (distinct from heap & stack)
    total    =  249036797 doubles =   1900.0 Mbytes
    verify   = yes
    hardfail = no 


           Directory information
           ---------------------

  0 permanent = .
  0 scratch   = .




                                NWChem Input Module
                                -------------------


                                   Hellow Dolly
                                   ------------

 Scaling coordinates for geometry "geometry" by  1.889725989
 (inverse scale =  0.529177249)



                             Geometry "geometry" -> ""
                             -------------------------

 Output coordinates in angstroms (scale by  1.889725989 to convert to a.u.)

  No.       Tag          Charge          X              Y              Z
 ---- ---------------- ---------- -------------- -------------- --------------
    1 C                    6.0000     0.00000000     0.00000000    -0.65000000
    2 C                    6.0000     0.00000000     0.00000000     0.65000000

      Atomic Mass 
      ----------- 

      C                 12.000000


 Effective nuclear repulsion energy (a.u.)      14.6541392031

            Nuclear Dipole moment (a.u.) 
            ----------------------------
        X                 Y               Z
 ---------------- ---------------- ----------------
     0.0000000000     0.0000000000     0.0000000000


            XYZ format geometry
            -------------------
     2
 geometry
 C                     0.00000000     0.00000000    -0.65000000
 C                     0.00000000     0.00000000     0.65000000

 ==============================================================================
                                internuclear distances
 ------------------------------------------------------------------------------
       center one      |      center two      | atomic units |  angstroms
 ------------------------------------------------------------------------------
    2 C                |   1 C                |     2.45664  |     1.30000
 ------------------------------------------------------------------------------
                         number of included internuclear distances:          1
 ==============================================================================



 >>>> PSPW Parallel Module - steepest_descent <<<<
          ****************************************************
          *                                                  *
          *     Car-Parrinello microcluster calculation      *
          *                                                  *
          *     [     steepest descent minimization   ]      *
          *                                                  *
          *     [ NorthWest Chemistry implementation ]       *
          *                                                  *
          *            version #5.00   06/01/99              *
          *                                                  *
          *    This code was developed by Eric J. Bylaska,   *
          *    and was based upon algorithms and code        *
          *    developed by the group of Prof. John H. Weare *
          *                                                  *
          ****************************************************
     >>>  JOB STARTED       AT Sun Feb 28 11:55:32 2021  <<<
          ================ PSPW input data ===================
  library name resolved from: compiled reference
  NWCHEM_NWPW_LIBRARY set to: </Users/bylaska/nwchem-releases/nwchem/src/nwpw/libraryps/>
 Generating 1d pseudopotential for C   

 Generated formatted_filename: ./C.vpp
 random planewave guess, initial psi:c2-cpsd.movecs                                    
 -   spin, nalpha, nbeta:                    1                    4                    0

 input psi filename:./c2-cpsd.movecs
 Warning: Gram-Schmidt being performed on psi2

 number of processors used:         1
 processor grid           :   1 x   1
 parallel mapping         :   2d hilbert
 parallel mapping         :     balanced
 parallel io              :       off
 number of threads        :        16

 options:
      ionic motion         = no
      boundary conditions  = periodic    (version3)
      electron spin        = restricted
      exchange-correlation = LDA (Vosko et al) parameterization

 elements involved in the cluster:
      1: C   valence charge:  4.0000  lmax=  2
             comment    : Parameterized (J.Phys.Chem., vol 100, page 6966) Hamman psp
             pseudpotential type            :   0
             highest angular component      :   2
             local potential used           :   2
             number of non-local projections:   4
             cutoff =   0.800   0.850   0.850


 total charge=   0.000

 atomic composition:
     C :    2

 initial position of ions:
        1 C    (    0.00000    0.00000   -1.22832 ) - atomic mass=  12.000          
        2 C    (    0.00000    0.00000    1.22832 ) - atomic mass=  12.000          
        G.C.   (    0.00000    0.00000    0.00000 )
        C.O.M. (    0.00000    0.00000    0.00000 )
        number of constraints =      0 ( DOF =      1 )

 number of electrons: spin up=     4 (   4 per task)  down=     4 (   4 per task) (Fourier space)
 number of orbitals : spin up=     4 (   4 per task)  down=     4 (   4 per task) (Fourier space)

 supercell:
      lattice:    a1=<  20.000   0.000   0.000 >
                  a2=<   0.000  20.000   0.000 >
                  a3=<   0.000   0.000  20.000 >
      reciprocal: b1=<   0.314   0.000   0.000 >
                  b2=<   0.000   0.314   0.000 >
                  b3=<   0.000   0.000   0.314 >
      volume :       8000.0
      density cutoff= 10.000  fft= 30x 30x 30(     6027 waves     6027 per task)
      wavefnc cutoff=  5.000  fft= 30x 30x 30(     2169 waves     2169 per task)
      Ewald summation: cut radius=    6.37  and  1
                        madelung=    1.76011888

 technical parameters:
      translation constrained
      time step=      5.80     fictitious mass=  400000.0
      tolerance=.100E-08 (energy)   0.100E-08 (electron)   0.100E-03 (ion)
      maximum iterations =      1000 (   10 inner    100 outer )



          ==================== iteration =========================
     >>>  ITERATION STARTED AT Sun Feb 28 11:55:33 2021  <<<
    iter.           Energy         DeltaE       DeltaRho        DeltaIon
    ---------------------------------------------------------------------
      10    0.2419503594E+01    0.41716E-01    0.71007E-02    0.00000E+00
      20    0.1631524148E+01   -0.13586E-01    0.58124E-02    0.00000E+00
      30    0.9178737110E+00   -0.12304E-01    0.57732E-02    0.00000E+00
      40    0.1663202993E+00   -0.12958E-01    0.66786E-02    0.00000E+00
      50   -0.6658021881E+00   -0.14347E-01    0.74588E-02    0.00000E+00
      60   -0.1556419306E+01   -0.15355E-01    0.76105E-02    0.00000E+00
      70   -0.2442409287E+01   -0.15276E-01    0.69750E-02    0.00000E+00
      80   -0.3261625889E+01   -0.14124E-01    0.58090E-02    0.00000E+00
      90   -0.3982910786E+01   -0.12436E-01    0.57445E-02    0.00000E+00
     100   -0.4606187792E+01   -0.10746E-01    0.61899E-02    0.00000E+00
     110   -0.5146227007E+01   -0.93110E-02    0.63880E-02    0.00000E+00
     120   -0.5618813335E+01   -0.81480E-02    0.62960E-02    0.00000E+00
     130   -0.6035329992E+01   -0.71813E-02    0.59293E-02    0.00000E+00
     140   -0.6403097319E+01   -0.63408E-02    0.53538E-02    0.00000E+00
     150   -0.6727504687E+01   -0.55932E-02    0.46601E-02    0.00000E+00
     160   -0.7013647239E+01   -0.49335E-02    0.39348E-02    0.00000E+00
     170   -0.7266903700E+01   -0.43665E-02    0.32425E-02    0.00000E+00
     180   -0.7492772267E+01   -0.38943E-02    0.26220E-02    0.00000E+00
     190   -0.7696438058E+01   -0.35115E-02    0.20900E-02    0.00000E+00
     200   -0.7882383255E+01   -0.32060E-02    0.16482E-02    0.00000E+00
     210   -0.8054162311E+01   -0.29617E-02    0.12897E-02    0.00000E+00
     220   -0.8214350623E+01   -0.27619E-02    0.11305E-02    0.00000E+00
     230   -0.8364628458E+01   -0.25910E-02    0.11400E-02    0.00000E+00
     240   -0.8505950811E+01   -0.24366E-02    0.11285E-02    0.00000E+00
     250   -0.8638756301E+01   -0.22897E-02    0.10977E-02    0.00000E+00
     260   -0.8763175676E+01   -0.21452E-02    0.10506E-02    0.00000E+00
     270   -0.8879210787E+01   -0.20006E-02    0.99106E-03    0.00000E+00
     280   -0.8986867215E+01   -0.18561E-02    0.92314E-03    0.00000E+00
     290   -0.9086235954E+01   -0.17133E-02    0.85076E-03    0.00000E+00
     300   -0.9177529454E+01   -0.15740E-02    0.77731E-03    0.00000E+00
     310   -0.9261083167E+01   -0.14406E-02    0.70541E-03    0.00000E+00
     320   -0.9337335441E+01   -0.13147E-02    0.63698E-03    0.00000E+00
     330   -0.9406797227E+01   -0.11976E-02    0.57323E-03    0.00000E+00
     340   -0.9470020079E+01   -0.10900E-02    0.51481E-03    0.00000E+00
     350   -0.9527567641E+01   -0.99220E-03    0.46195E-03    0.00000E+00
     360   -0.9579993066E+01   -0.90389E-03    0.41456E-03    0.00000E+00
     370   -0.9627822911E+01   -0.82465E-03    0.37788E-03    0.00000E+00
     380   -0.9671546905E+01   -0.75386E-03    0.34555E-03    0.00000E+00
     390   -0.9711612502E+01   -0.69079E-03    0.31651E-03    0.00000E+00
     400   -0.9748423030E+01   -0.63466E-03    0.29238E-03    0.00000E+00
     410   -0.9782338312E+01   -0.58475E-03    0.27597E-03    0.00000E+00
     420   -0.9813676902E+01   -0.54032E-03    0.26110E-03    0.00000E+00
     430   -0.9842719224E+01   -0.50073E-03    0.24761E-03    0.00000E+00
     440   -0.9869711147E+01   -0.46538E-03    0.23533E-03    0.00000E+00
     450   -0.9894867664E+01   -0.43373E-03    0.22412E-03    0.00000E+00
     460   -0.9918376464E+01   -0.40532E-03    0.21385E-03    0.00000E+00
     470   -0.9940401279E+01   -0.37974E-03    0.20439E-03    0.00000E+00
     480   -0.9961084935E+01   -0.35661E-03    0.19566E-03    0.00000E+00
     490   -0.9980552100E+01   -0.33564E-03    0.18754E-03    0.00000E+00
     500   -0.9998911709E+01   -0.31654E-03    0.17997E-03    0.00000E+00
     510   -0.1001625910E+02   -0.29909E-03    0.17288E-03    0.00000E+00
     520   -0.1003267789E+02   -0.28308E-03    0.16620E-03    0.00000E+00
     530   -0.1004824156E+02   -0.26834E-03    0.15989E-03    0.00000E+00
     540   -0.1006301488E+02   -0.25471E-03    0.15391E-03    0.00000E+00
     550   -0.1007705511E+02   -0.24207E-03    0.14821E-03    0.00000E+00
     560   -0.1009041303E+02   -0.23031E-03    0.14276E-03    0.00000E+00
     570   -0.1010313385E+02   -0.21932E-03    0.13755E-03    0.00000E+00
     580   -0.1011525794E+02   -0.20904E-03    0.13254E-03    0.00000E+00
     590   -0.1012682156E+02   -0.19937E-03    0.12771E-03    0.00000E+00
     600   -0.1013785733E+02   -0.19027E-03    0.12307E-03    0.00000E+00
     610   -0.1014839481E+02   -0.18168E-03    0.11858E-03    0.00000E+00
     620   -0.1015846084E+02   -0.17355E-03    0.11424E-03    0.00000E+00
     630   -0.1016807995E+02   -0.16585E-03    0.11004E-03    0.00000E+00
     640   -0.1017727461E+02   -0.15853E-03    0.10597E-03    0.00000E+00
     650   -0.1018606556E+02   -0.15157E-03    0.10203E-03    0.00000E+00
     660   -0.1019447197E+02   -0.14494E-03    0.98215E-04    0.00000E+00
     670   -0.1020251166E+02   -0.13862E-03    0.94513E-04    0.00000E+00
     680   -0.1021020127E+02   -0.13258E-03    0.90924E-04    0.00000E+00
     690   -0.1021755637E+02   -0.12681E-03    0.87445E-04    0.00000E+00
     700   -0.1022459162E+02   -0.12130E-03    0.84072E-04    0.00000E+00
     710   -0.1023132082E+02   -0.11602E-03    0.80804E-04    0.00000E+00
     720   -0.1023775706E+02   -0.11097E-03    0.77638E-04    0.00000E+00
     730   -0.1024391272E+02   -0.10613E-03    0.74572E-04    0.00000E+00
     740   -0.1024979960E+02   -0.10150E-03    0.71604E-04    0.00000E+00
     750   -0.1025542893E+02   -0.97057E-04    0.68732E-04    0.00000E+00
     760   -0.1026081145E+02   -0.92802E-04    0.65954E-04    0.00000E+00
     770   -0.1026595741E+02   -0.88723E-04    0.63269E-04    0.00000E+00
     780   -0.1027087663E+02   -0.84814E-04    0.60675E-04    0.00000E+00
     790   -0.1027557853E+02   -0.81067E-04    0.58169E-04    0.00000E+00
     800   -0.1028007214E+02   -0.77476E-04    0.55751E-04    0.00000E+00
     810   -0.1028436615E+02   -0.74035E-04    0.53418E-04    0.00000E+00
     820   -0.1028846889E+02   -0.70737E-04    0.51168E-04    0.00000E+00
     830   -0.1029238837E+02   -0.67577E-04    0.48999E-04    0.00000E+00
     840   -0.1029613230E+02   -0.64550E-04    0.46910E-04    0.00000E+00
     850   -0.1029970808E+02   -0.61651E-04    0.44899E-04    0.00000E+00
     860   -0.1030312285E+02   -0.58875E-04    0.42963E-04    0.00000E+00
     870   -0.1030638346E+02   -0.56217E-04    0.41101E-04    0.00000E+00
     880   -0.1030949650E+02   -0.53673E-04    0.39311E-04    0.00000E+00
     890   -0.1031246832E+02   -0.51238E-04    0.37590E-04    0.00000E+00
     900   -0.1031530500E+02   -0.48908E-04    0.35937E-04    0.00000E+00
     910   -0.1031801241E+02   -0.46680E-04    0.34349E-04    0.00000E+00
     920   -0.1032059619E+02   -0.44548E-04    0.32825E-04    0.00000E+00
     930   -0.1032306173E+02   -0.42509E-04    0.31363E-04    0.00000E+00
     940   -0.1032541425E+02   -0.40561E-04    0.29960E-04    0.00000E+00
     950   -0.1032765873E+02   -0.38698E-04    0.28615E-04    0.00000E+00
     960   -0.1032979997E+02   -0.36918E-04    0.27326E-04    0.00000E+00
     970   -0.1033184256E+02   -0.35217E-04    0.26091E-04    0.00000E+00
     980   -0.1033379091E+02   -0.33592E-04    0.24908E-04    0.00000E+00
     990   -0.1033564927E+02   -0.32041E-04    0.23774E-04    0.00000E+00
    1000   -0.1033742168E+02   -0.30559E-04    0.22690E-04    0.00000E+00
 *** arrived at the Maximum iteration.   terminated.
     >>>  ITERATION ENDED   AT Sun Feb 28 11:55:58 2021  <<<



          =============  summary of results  =================
 final position of ions:
        1 C    (    0.00000    0.00000   -1.22832 ) - atomic mass=  12.000          
        2 C    (    0.00000    0.00000    1.22832 ) - atomic mass=  12.000          
        G.C.   (    0.00000    0.00000    0.00000 )
        C.O.M. (    0.00000    0.00000    0.00000 )
        number of constraints =      0 ( DOF =      1 )

 number of electrons: spin up=    4.00000  down=    4.00000 (real space)


 total     energy    :  -0.1033742168E+02 (   -0.51687E+01/ion)
 total orbital energy:  -0.3489913331E+01 (   -0.87248E+00/electron)
 hartree   energy    :   0.9744529141E+01 (    0.24361E+01/electron)
 exc-corr  energy    :  -0.2922901772E+01 (   -0.73073E+00/electron)
 ion-ion   energy    :   0.1999122309E+01 (    0.99956E+00/ion)

 K.S. kinetic energy :   0.5504403623E+01 (    0.13761E+01/electron)
 K.S. V_l  energy    :  -0.2596566834E+02 (   -0.64914E+01/electron)
 K.S. V_nl energy    :   0.1303093363E+01 (    0.32577E+00/electron)
 K.S. V_Hart energy  :   0.1948905828E+02 (    0.48723E+01/electron)
 K.S. V_xc energy    :  -0.3820800259E+01 (   -0.95520E+00/electron)
 Virial Coefficient  :  -0.1634022061E+01

 orbital energies:
    -0.2347360E+00 (  -6.388eV)
    -0.2768780E+00 (  -7.534eV)
    -0.4126848E+00 ( -11.230eV)
    -0.8206578E+00 ( -22.331eV)

 Total PSPW energy   :  -0.1033742168E+02


=== Spin Contamination ===

 <Sexact^2> =    0.0000000000000000     
 <S^2>      =    0.0000000000000000     



== Center of Charge ==

spin up     (   -0.0104,    0.0321,    0.0324 )
spin down   (   -0.0104,    0.0321,    0.0324 )
     total  (   -0.0104,    0.0321,    0.0324 )
ionic       (    0.0000,    0.0000,    0.0000 )


== Molecular Dipole wrt Center of Mass ==

mu   =  (    0.0833,   -0.2565,   -0.2595 ) au
|mu| =     0.3743 au,       0.9513 Debye

 output psi filename:./c2-cpsd.movecs

 -----------------
 cputime in seconds
 prologue    :   0.33463699899999999     
 main loop   :    25.624547000000000     
 epilogue    :    1.2180000000000746E-002
 total       :    25.971363998999998     
 cputime/step:    2.5624547000000001E-002



Time spent doing                        total          step       percent
  total time                 :   0.259715E+02  0.259715E-01       100.0 %
  i/o time                   :   0.285943E+00  0.285943E-03         1.1 %
  FFTs                       :   0.325496E+01  0.325496E-02        12.5 %
  dot products               :   0.336798E+00  0.336798E-03         1.3 %
  geodesic                   :   0.666570E-01  0.666570E-04         0.3 %
  ffm_dgemm                  :   0.211697E+00  0.211697E-03         0.8 %
  fmf_dgemm                  :   0.634010E-01  0.634010E-04         0.2 %
  mmm_dgemm                  :   0.916414E+00  0.916414E-03         3.5 %
  m_diagonalize              :   0.700000E-04  0.700000E-07         0.0 %
  exchange correlation       :   0.281030E+00  0.281030E-03         1.1 %
  local pseudopotentials     :   0.106478E+01  0.106478E-02         4.1 %
  non-local pseudopotentials :   0.206540E+01  0.206540E-02         8.0 %
  hartree potentials         :   0.657068E-01  0.657068E-04         0.3 %
  ion-ion interaction        :   0.106920E-01  0.106920E-04         0.0 %
  structure factors          :   0.367091E+00  0.367091E-03         1.4 %
  phase factors              :   0.103780E-02  0.103780E-05         0.0 %
  masking and packing        :   0.418349E+01  0.418349E-02        16.1 %
  queue fft                  :   0.114607E+02  0.114607E-01        44.1 %
  queue fft (serial)         :   0.140013E+01  0.140013E-02         5.4 %
  queue fft (message passing):   0.417084E+01  0.417084E-02        16.1 %
  MATHIAS InnerLoop          :   0.256225E+02  0.256225E-01        98.7 %
  MATHIAS Phaze              :   0.269292E-02  0.269292E-05         0.0 %
  MATHIAS Pipelined FFTs     :   0.598191E+01  0.598191E-02        23.0 %
  MATHIAS Lagrange           :   0.292020E+01  0.292020E-02        11.2 %
  MATHIAS Exch Corr          :   0.282186E+00  0.282186E-03         1.1 %
  MATHIAS Hpsi               :   0.123914E+02  0.123914E-01        47.7 %
  non-local psp FFM          :   0.819131E+00  0.819131E-03         3.2 %
  non-local psp FMF          :   0.108360E-01  0.108360E-04         0.0 %
  non-local psp FFM A        :   0.504403E+00  0.504403E-03         1.9 %
  non-local psp FFM B        :   0.120939E+00  0.120939E-03         0.5 %
     >>>  JOB COMPLETED     AT Sun Feb 28 11:55:58 2021  <<<

 Task  times  cpu:       26.0s     wall:       26.0s


                                NWChem Input Module
                                -------------------


 >>>> PSPW Parallel Module - steepest_descent <<<<
          ****************************************************
          *                                                  *
          *     Car-Parrinello microcluster calculation      *
          *                                                  *
          *     [     steepest descent minimization   ]      *
          *                                                  *
          *     [ NorthWest Chemistry implementation ]       *
          *                                                  *
          *            version #5.00   06/01/99              *
          *                                                  *
          *    This code was developed by Eric J. Bylaska,   *
          *    and was based upon algorithms and code        *
          *    developed by the group of Prof. John H. Weare *
          *                                                  *
          ****************************************************
     >>>  JOB STARTED       AT Sun Feb 28 11:55:58 2021  <<<
          ================ PSPW input data ===================
 pseudopotential is not correctly formatted:C.vpp                                             

 Generated formatted_filename: ./C.vpp
 Error reading psi - bad grid
 nfft :                   30                   30                   30
 ngrid:                   60                   60                   60
 Error reading psi - bad grid

 Grid is being converted:
 ------------------------

 To turn off automatic grid conversion:

 set nwpw:psi_nogrid .false.

 old_filename: c2-cpsd.movecs                                    
 new_filename: c2-cpsd.movecs                                    
 converting  :  30x 30x 30 -->  60x 60x 60
converting .... psi:    1 spin: 1
converting .... psi:    2 spin: 1
converting .... psi:    3 spin: 1
converting .... psi:    4 spin: 1

 input psi filename:./c2-cpsd.movecs

 number of processors used:         1
 processor grid           :   1 x   1
 parallel mapping         :   2d hilbert
 parallel mapping         :     balanced
 parallel io              :       off
 number of threads        :        16

 options:
      ionic motion         = no
      boundary conditions  = periodic    (version3)
      electron spin        = restricted
      exchange-correlation = LDA (Vosko et al) parameterization

 elements involved in the cluster:
      1: C   valence charge:  4.0000  lmax=  2
             comment    : Parameterized (J.Phys.Chem., vol 100, page 6966) Hamman psp
             pseudpotential type            :   0
             highest angular component      :   2
             local potential used           :   2
             number of non-local projections:   4
             cutoff =   0.800   0.850   0.850


 total charge=   0.000

 atomic composition:
     C :    2

 initial position of ions:
        1 C    (    0.00000    0.00000   -1.22832 ) - atomic mass=  12.000          
        2 C    (    0.00000    0.00000    1.22832 ) - atomic mass=  12.000          
        G.C.   (    0.00000    0.00000    0.00000 )
        C.O.M. (    0.00000    0.00000    0.00000 )
        number of constraints =      0 ( DOF =      1 )

 number of electrons: spin up=     4 (   4 per task)  down=     4 (   4 per task) (Fourier space)
 number of orbitals : spin up=     4 (   4 per task)  down=     4 (   4 per task) (Fourier space)

 supercell:
      lattice:    a1=<  20.000   0.000   0.000 >
                  a2=<   0.000  20.000   0.000 >
                  a3=<   0.000   0.000  20.000 >
      reciprocal: b1=<   0.314   0.000   0.000 >
                  b2=<   0.000   0.314   0.000 >
                  b3=<   0.000   0.000   0.314 >
      volume :       8000.0
      density cutoff= 40.000  fft= 60x 60x 60(    48485 waves    48485 per task)
      wavefnc cutoff= 20.000  fft= 60x 60x 60(    17133 waves    17133 per task)
      Ewald summation: cut radius=    6.37  and  1
                        madelung=    1.76011888

 technical parameters:
      translation constrained
      time step=      5.80     fictitious mass=  400000.0
      tolerance=.100E-08 (energy)   0.100E-08 (electron)   0.100E-03 (ion)
      maximum iterations =      1000 (   10 inner    100 outer )



          ==================== iteration =========================
     >>>  ITERATION STARTED AT Sun Feb 28 11:56:00 2021  <<<
    iter.           Energy         DeltaE       DeltaRho        DeltaIon
    ---------------------------------------------------------------------
      10   -0.1064559336E+02   -0.18354E+00    0.19582E-02    0.00000E+00
      20   -0.1078585299E+02   -0.24183E-02    0.87695E-03    0.00000E+00
      30   -0.1084850736E+02   -0.10802E-02    0.42789E-03    0.00000E+00
      40   -0.1087999466E+02   -0.54288E-03    0.24348E-03    0.00000E+00
      50   -0.1089772266E+02   -0.30566E-03    0.15172E-03    0.00000E+00
      60   -0.1090879577E+02   -0.19092E-03    0.10226E-03    0.00000E+00
      70   -0.1091634851E+02   -0.13022E-03    0.73492E-04    0.00000E+00
      80   -0.1092187370E+02   -0.95262E-04    0.55553E-04    0.00000E+00
      90   -0.1092613803E+02   -0.73523E-04    0.43683E-04    0.00000E+00
     100   -0.1092956495E+02   -0.59085E-04    0.35434E-04    0.00000E+00
     110   -0.1093240454E+02   -0.48958E-04    0.29463E-04    0.00000E+00
     120   -0.1093481350E+02   -0.41534E-04    0.24995E-04    0.00000E+00
     130   -0.1093689511E+02   -0.35890E-04    0.21556E-04    0.00000E+00
     140   -0.1093872044E+02   -0.31471E-04    0.18846E-04    0.00000E+00
     150   -0.1094034012E+02   -0.27926E-04    0.17085E-04    0.00000E+00
     160   -0.1094179136E+02   -0.25021E-04    0.15625E-04    0.00000E+00
     170   -0.1094310219E+02   -0.22601E-04    0.14383E-04    0.00000E+00
     180   -0.1094429420E+02   -0.20552E-04    0.13310E-04    0.00000E+00
     190   -0.1094538432E+02   -0.18795E-04    0.12372E-04    0.00000E+00
     200   -0.1094638609E+02   -0.17272E-04    0.11542E-04    0.00000E+00
     210   -0.1094731048E+02   -0.15938E-04    0.10802E-04    0.00000E+00
     220   -0.1094816650E+02   -0.14759E-04    0.10135E-04    0.00000E+00
     230   -0.1094896165E+02   -0.13710E-04    0.95321E-05    0.00000E+00
     240   -0.1094970224E+02   -0.12769E-04    0.89823E-05    0.00000E+00
     250   -0.1095039364E+02   -0.11921E-04    0.84787E-05    0.00000E+00
     260   -0.1095104044E+02   -0.11152E-04    0.80155E-05    0.00000E+00
     270   -0.1095164663E+02   -0.10452E-04    0.75876E-05    0.00000E+00
     280   -0.1095221568E+02   -0.98113E-05    0.71911E-05    0.00000E+00
     290   -0.1095275065E+02   -0.92236E-05    0.68226E-05    0.00000E+00
     300   -0.1095325424E+02   -0.86825E-05    0.64792E-05    0.00000E+00
     310   -0.1095372885E+02   -0.81829E-05    0.61584E-05    0.00000E+00
     320   -0.1095417662E+02   -0.77202E-05    0.58583E-05    0.00000E+00
     330   -0.1095459950E+02   -0.72910E-05    0.55770E-05    0.00000E+00
     340   -0.1095499922E+02   -0.68918E-05    0.53128E-05    0.00000E+00
     350   -0.1095537738E+02   -0.65200E-05    0.50645E-05    0.00000E+00
     360   -0.1095573541E+02   -0.61730E-05    0.48309E-05    0.00000E+00
     370   -0.1095607464E+02   -0.58488E-05    0.46107E-05    0.00000E+00
     380   -0.1095639627E+02   -0.55454E-05    0.44031E-05    0.00000E+00
     390   -0.1095670142E+02   -0.52612E-05    0.42072E-05    0.00000E+00
     400   -0.1095699111E+02   -0.49947E-05    0.40222E-05    0.00000E+00
     410   -0.1095726630E+02   -0.47445E-05    0.38473E-05    0.00000E+00
     420   -0.1095752785E+02   -0.45095E-05    0.36820E-05    0.00000E+00
     430   -0.1095777658E+02   -0.42885E-05    0.35256E-05    0.00000E+00
     440   -0.1095801325E+02   -0.40805E-05    0.33776E-05    0.00000E+00
     450   -0.1095823856E+02   -0.38848E-05    0.32376E-05    0.00000E+00
     460   -0.1095845318E+02   -0.37003E-05    0.31049E-05    0.00000E+00
     470   -0.1095865772E+02   -0.35265E-05    0.29792E-05    0.00000E+00
     480   -0.1095885275E+02   -0.33626E-05    0.28602E-05    0.00000E+00
     490   -0.1095903882E+02   -0.32080E-05    0.27474E-05    0.00000E+00
     500   -0.1095921642E+02   -0.30621E-05    0.26405E-05    0.00000E+00
     510   -0.1095938603E+02   -0.29243E-05    0.25391E-05    0.00000E+00
     520   -0.1095954809E+02   -0.27943E-05    0.24431E-05    0.00000E+00
     530   -0.1095970303E+02   -0.26714E-05    0.23520E-05    0.00000E+00
     540   -0.1095985124E+02   -0.25553E-05    0.22656E-05    0.00000E+00
     550   -0.1095999309E+02   -0.24456E-05    0.21838E-05    0.00000E+00
     560   -0.1096012892E+02   -0.23419E-05    0.21062E-05    0.00000E+00
     570   -0.1096025906E+02   -0.22439E-05    0.20326E-05    0.00000E+00
     580   -0.1096038383E+02   -0.21512E-05    0.19628E-05    0.00000E+00
     590   -0.1096050352E+02   -0.20636E-05    0.18967E-05    0.00000E+00
     600   -0.1096061840E+02   -0.19807E-05    0.18340E-05    0.00000E+00
     610   -0.1096072874E+02   -0.19023E-05    0.17745E-05    0.00000E+00
     620   -0.1096083477E+02   -0.18282E-05    0.17182E-05    0.00000E+00
     630   -0.1096093674E+02   -0.17581E-05    0.16649E-05    0.00000E+00
     640   -0.1096103486E+02   -0.16918E-05    0.16143E-05    0.00000E+00
     650   -0.1096112934E+02   -0.16290E-05    0.15664E-05    0.00000E+00
     660   -0.1096122038E+02   -0.15697E-05    0.15211E-05    0.00000E+00
     670   -0.1096130817E+02   -0.15136E-05    0.14782E-05    0.00000E+00
     680   -0.1096139288E+02   -0.14605E-05    0.14375E-05    0.00000E+00
     690   -0.1096147467E+02   -0.14103E-05    0.13991E-05    0.00000E+00
     700   -0.1096155372E+02   -0.13628E-05    0.13627E-05    0.00000E+00
     710   -0.1096163015E+02   -0.13179E-05    0.13283E-05    0.00000E+00
     720   -0.1096170413E+02   -0.12755E-05    0.12958E-05    0.00000E+00
     730   -0.1096177578E+02   -0.12353E-05    0.12651E-05    0.00000E+00
     740   -0.1096184523E+02   -0.11974E-05    0.12360E-05    0.00000E+00
     750   -0.1096191260E+02   -0.11616E-05    0.12086E-05    0.00000E+00
     760   -0.1096197801E+02   -0.11277E-05    0.11828E-05    0.00000E+00
     770   -0.1096204157E+02   -0.10958E-05    0.11584E-05    0.00000E+00
     780   -0.1096210337E+02   -0.10656E-05    0.11354E-05    0.00000E+00
     790   -0.1096216352E+02   -0.10370E-05    0.11138E-05    0.00000E+00
     800   -0.1096222210E+02   -0.10101E-05    0.10934E-05    0.00000E+00
     810   -0.1096227922E+02   -0.98475E-06    0.10743E-05    0.00000E+00
     820   -0.1096233495E+02   -0.96081E-06    0.10563E-05    0.00000E+00
     830   -0.1096238936E+02   -0.93824E-06    0.10394E-05    0.00000E+00
     840   -0.1096244255E+02   -0.91698E-06    0.10235E-05    0.00000E+00
     850   -0.1096249457E+02   -0.89695E-06    0.10087E-05    0.00000E+00
     860   -0.1096254550E+02   -0.87809E-06    0.99479E-06    0.00000E+00
     870   -0.1096259540E+02   -0.86035E-06    0.98181E-06    0.00000E+00
     880   -0.1096264434E+02   -0.84368E-06    0.96970E-06    0.00000E+00
     890   -0.1096269236E+02   -0.82801E-06    0.95841E-06    0.00000E+00
     900   -0.1096273953E+02   -0.81330E-06    0.94791E-06    0.00000E+00
     910   -0.1096278590E+02   -0.79950E-06    0.93816E-06    0.00000E+00
     920   -0.1096283152E+02   -0.78657E-06    0.92914E-06    0.00000E+00
     930   -0.1096287644E+02   -0.77446E-06    0.92079E-06    0.00000E+00
     940   -0.1096292070E+02   -0.76313E-06    0.91311E-06    0.00000E+00
     950   -0.1096296435E+02   -0.75255E-06    0.90604E-06    0.00000E+00
     960   -0.1096300743E+02   -0.74268E-06    0.89957E-06    0.00000E+00
     970   -0.1096304997E+02   -0.73349E-06    0.89367E-06    0.00000E+00
     980   -0.1096309202E+02   -0.72493E-06    0.88832E-06    0.00000E+00
     990   -0.1096313360E+02   -0.71699E-06    0.88348E-06    0.00000E+00
    1000   -0.1096317476E+02   -0.70963E-06    0.87914E-06    0.00000E+00
 *** arrived at the Maximum iteration.   terminated.
     >>>  ITERATION ENDED   AT Sun Feb 28 11:56:32 2021  <<<



          =============  summary of results  =================
 final position of ions:
        1 C    (    0.00000    0.00000   -1.22832 ) - atomic mass=  12.000          
        2 C    (    0.00000    0.00000    1.22832 ) - atomic mass=  12.000          
        G.C.   (    0.00000    0.00000    0.00000 )
        C.O.M. (    0.00000    0.00000    0.00000 )
        number of constraints =      0 ( DOF =      1 )

 number of electrons: spin up=    4.00000  down=    4.00000 (real space)


 total     energy    :  -0.1096317476E+02 (   -0.54816E+01/ion)
 total orbital energy:  -0.3400184948E+01 (   -0.85005E+00/electron)
 hartree   energy    :   0.1051231846E+02 (    0.26281E+01/electron)
 exc-corr  energy    :  -0.3088329872E+01 (   -0.77208E+00/electron)
 ion-ion   energy    :   0.1999122309E+01 (    0.99956E+00/ion)

 K.S. kinetic energy :   0.6970240696E+01 (    0.17426E+01/electron)
 K.S. V_l  energy    :  -0.2778122464E+02 (   -0.69453E+01/electron)
 K.S. V_nl energy    :   0.4246982867E+00 (    0.10617E+00/electron)
 K.S. V_Hart energy  :   0.2102463693E+02 (    0.52562E+01/electron)
 K.S. V_xc energy    :  -0.4038536216E+01 (   -0.10096E+01/electron)
 Virial Coefficient  :  -0.1487814567E+01

 orbital energies:
    -0.2688277E+00 (  -7.315eV)
    -0.3126425E+00 (  -8.508eV)
    -0.3583920E+00 (  -9.752eV)
    -0.7602303E+00 ( -20.687eV)

 Total PSPW energy   :  -0.1096317476E+02


=== Spin Contamination ===

 <Sexact^2> =    0.0000000000000000     
 <S^2>      =    0.0000000000000000     



== Center of Charge ==

spin up     (   -0.0220,    0.0218,    0.0030 )
spin down   (   -0.0220,    0.0218,    0.0030 )
     total  (   -0.0220,    0.0218,    0.0030 )
ionic       (    0.0000,    0.0000,    0.0000 )


== Molecular Dipole wrt Center of Mass ==

mu   =  (    0.1764,   -0.1741,   -0.0239 ) au
|mu| =     0.2490 au,       0.6328 Debye

 output psi filename:./c2-cpsd.movecs

 -----------------
 cputime in seconds
 prologue    :    1.4284909990000010     
 main loop   :    32.148041000000006     
 epilogue    :    2.7771000000001322E-002
 total       :    33.604302999000005     
 cputime/step:    3.2148041000000009E-002



Time spent doing                        total          step       percent
  total time                 :   0.336043E+02  0.336043E-01       100.0 %
  i/o time                   :   0.123617E+01  0.123617E-02         3.7 %
  FFTs                       :   0.428229E+01  0.428229E-02        12.7 %
  dot products               :   0.410438E+00  0.410438E-03         1.2 %
  geodesic                   :   0.250518E+00  0.250518E-03         0.7 %
  ffm_dgemm                  :   0.231156E+00  0.231156E-03         0.7 %
  fmf_dgemm                  :   0.945700E-01  0.945700E-04         0.3 %
  mmm_dgemm                  :   0.796399E+00  0.796399E-03         2.4 %
  m_diagonalize              :   0.270000E-04  0.270000E-07         0.0 %
  exchange correlation       :   0.155444E+01  0.155444E-02         4.6 %
  local pseudopotentials     :   0.110174E+01  0.110174E-02         3.3 %
  non-local pseudopotentials :   0.213491E+01  0.213491E-02         6.4 %
  hartree potentials         :   0.124991E+00  0.124991E-03         0.4 %
  ion-ion interaction        :   0.746510E-01  0.746510E-04         0.2 %
  structure factors          :   0.384858E+00  0.384858E-03         1.1 %
  phase factors              :   0.165975E-02  0.165975E-05         0.0 %
  masking and packing        :   0.444093E+01  0.444093E-02        13.2 %
  queue fft                  :   0.145733E+02  0.145733E-01        43.4 %
  queue fft (serial)         :   0.252216E+01  0.252216E-02         7.5 %
  queue fft (message passing):   0.579627E+01  0.579627E-02        17.2 %
  MATHIAS InnerLoop          :   0.321457E+02  0.321457E-01        95.7 %
  MATHIAS Phaze              :   0.385992E-02  0.385992E-05         0.0 %
  MATHIAS Pipelined FFTs     :   0.758771E+01  0.758771E-02        22.6 %
  MATHIAS Lagrange           :   0.272780E+01  0.272780E-02         8.1 %
  MATHIAS Exch Corr          :   0.155559E+01  0.155559E-02         4.6 %
  MATHIAS Hpsi               :   0.148461E+02  0.148461E-01        44.2 %
  non-local psp FFM          :   0.809850E+00  0.809850E-03         2.4 %
  non-local psp FMF          :   0.924290E-01  0.924290E-04         0.3 %
  non-local psp FFM A        :   0.494384E+00  0.494384E-03         1.5 %
  non-local psp FFM B        :   0.130344E+00  0.130344E-03         0.4 %
     >>>  JOB COMPLETED     AT Sun Feb 28 11:56:32 2021  <<<

 Task  times  cpu:       33.6s     wall:       33.6s


                                NWChem Input Module
                                -------------------


 Summary of allocated global arrays
-----------------------------------
  No active global arrays



                         GA Statistics for process    0
                         ------------------------------

       create   destroy   get      put      acc     scatter   gather  read&inc
calls:    0        0        0        0        0        0        0        0     
number of processes/call 0.00e+00 0.00e+00 0.00e+00 0.00e+00 0.00e+00
bytes total:             0.00e+00 0.00e+00 0.00e+00 0.00e+00 0.00e+00 0.00e+00
bytes remote:            0.00e+00 0.00e+00 0.00e+00 0.00e+00 0.00e+00 0.00e+00
Max memory consumed for GA by this process: 0 bytes

MA_summarize_allocated_blocks: starting scan ...
MA_summarize_allocated_blocks: scan completed: 0 heap blocks, 0 stack blocks
MA usage statistics:

	allocation statistics:
					      heap	     stack
					      ----	     -----
	current number of blocks	         0	         0
	maximum number of blocks	       258	        19
	current total bytes		         0	         0
	maximum total bytes		 108813384	  27329192
	maximum total K-bytes		    108814	     27330
	maximum total M-bytes		       109	        28


                                     CITATION
                                     --------
                Please cite the following reference when publishing
                           results obtained with NWChem:

          E. Aprà, E. J. Bylaska, W. A. de Jong, N. Govind, K. Kowalski,
       T. P. Straatsma, M. Valiev, H. J. J. van Dam, Y. Alexeev, J. Anchell,
       V. Anisimov, F. W. Aquino, R. Atta-Fynn, J. Autschbach, N. P. Bauman,
     J. C. Becca, D. E. Bernholdt, K. Bhaskaran-Nair, S. Bogatko, P. Borowski,
        J. Boschen, J. Brabec, A. Bruner, E. Cauët, Y. Chen, G. N. Chuev,
      C. J. Cramer, J. Daily, M. J. O. Deegan, T. H. Dunning Jr., M. Dupuis,
   K. G. Dyall, G. I. Fann, S. A. Fischer, A. Fonari, H. Früchtl, L. Gagliardi,
      J. Garza, N. Gawande, S. Ghosh, K. Glaesemann, A. W. Götz, J. Hammond,
       V. Helms, E. D. Hermes, K. Hirao, S. Hirata, M. Jacquelin, L. Jensen,
   B. G. Johnson, H. Jónsson, R. A. Kendall, M. Klemm, R. Kobayashi, V. Konkov,
      S. Krishnamoorthy, M. Krishnan, Z. Lin, R. D. Lins, R. J. Littlefield,
      A. J. Logsdail, K. Lopata, W. Ma, A. V. Marenich, J. Martin del Campo,
   D. Mejia-Rodriguez, J. E. Moore, J. M. Mullin, T. Nakajima, D. R. Nascimento,
    J. A. Nichols, P. J. Nichols, J. Nieplocha, A. Otero-de-la-Roza, B. Palmer,
    A. Panyala, T. Pirojsirikul, B. Peng, R. Peverati, J. Pittner, L. Pollack,
   R. M. Richard, P. Sadayappan, G. C. Schatz, W. A. Shelton, D. W. Silverstein,
   D. M. A. Smith, T. A. Soares, D. Song, M. Swart, H. L. Taylor, G. S. Thomas,
            V. Tipparaju, D. G. Truhlar, K. Tsemekhman, T. Van Voorhis,
     Á. Vázquez-Mayagoitia, P. Verma, O. Villa, A. Vishnu, K. D. Vogiatzis,
        D. Wang, J. H. Weare, M. J. Williamson, T. L. Windus, K. Woliński,
        A. T. Wong, Q. Wu, C. Yang, Q. Yu, M. Zacharias, Z. Zhang, Y. Zhao,
                                and R. J. Harrison
                        "NWChem: Past, present, and future
                         J. Chem. Phys. 152, 184102 (2020)
                               doi:10.1063/5.0004997

                                      AUTHORS
                                      -------
     E. Apra, E. J. Bylaska, N. Govind, K. Kowalski, M. Valiev, W. A. de Jong,
      T. P. Straatsma, H. J. J. van Dam, D. Wang, T. L. Windus, N. P. Bauman,
       A. Panyala, J. Hammond, J. Autschbach, K. Bhaskaran-Nair, J. Brabec,
    K. Lopata, S. A. Fischer, S. Krishnamoorthy, M. Jacquelin, W. Ma, M. Klemm,
       O. Villa, Y. Chen, V. Anisimov, F. Aquino, S. Hirata, M. T. Hackler,
           Eric Hermes, L. Jensen, J. E. Moore, J. C. Becca, V. Konjkov,
            D. Mejia-Rodriguez, T. Risthaus, M. Malagoli, A. Marenich,
   A. Otero-de-la-Roza, J. Mullin, P. Nichols, R. Peverati, J. Pittner, Y. Zhao,
        P.-D. Fan, A. Fonari, M. J. Williamson, R. J. Harrison, J. R. Rehr,
      M. Dupuis, D. Silverstein, D. M. A. Smith, J. Nieplocha, V. Tipparaju,
      M. Krishnan, B. E. Van Kuiken, A. Vazquez-Mayagoitia, M. Swart, Q. Wu,
   T. Van Voorhis, A. A. Auer, M. Nooijen, L. D. Crosby, E. Brown, G. Cisneros,
     G. I. Fann, H. Fruchtl, J. Garza, K. Hirao, R. A. Kendall, J. A. Nichols,
       K. Tsemekhman, K. Wolinski, J. Anchell, D. E. Bernholdt, P. Borowski,
       T. Clark, D. Clerc, H. Dachsel, M. J. O. Deegan, K. Dyall, D. Elwood,
      E. Glendening, M. Gutowski, A. C. Hess, J. Jaffe, B. G. Johnson, J. Ju,
        R. Kobayashi, R. Kutteh, Z. Lin, R. Littlefield, X. Long, B. Meng,
      T. Nakajima, S. Niu, L. Pollack, M. Rosing, K. Glaesemann, G. Sandrone,
      M. Stave, H. Taylor, G. Thomas, J. H. van Lenthe, A. T. Wong, Z. Zhang.

 Total times  cpu:       59.6s     wall:       59.6s
