 argument  1 = aperiodic_polarizability.nw
  NWChem w/ OpenMP: maximum threads =    1
                                         
                                         


             Northwest Computational Chemistry Package (NWChem) 7.2.0
             --------------------------------------------------------


                    Environmental Molecular Sciences Laboratory
                       Pacific Northwest National Laboratory
                                Richland, WA 99352

                              Copyright (c) 1994-2022
                       Pacific Northwest National Laboratory
                            Battelle Memorial Institute

             NWChem is an open-source computational chemistry package
                        distributed under the terms of the
                      Educational Community License (ECL) 2.0
             A copy of the license is included with this distribution
                              in the LICENSE.TXT file

                                  ACKNOWLEDGMENT
                                  --------------

            This software and its documentation were developed at the
            EMSL at Pacific Northwest National Laboratory, a multiprogram
            national laboratory, operated for the U.S. Department of Energy
            by Battelle under Contract Number DE-AC05-76RL01830. Support
            for this work was provided by the Department of Energy Office
            of Biological and Environmental Research, Office of Basic
            Energy Sciences, and the Office of Advanced Scientific Computing.


           Job information
           ---------------

    hostname        = Erics-MacBook-Pro-2.local
    program         = nwchem
    date            = Sun Dec 11 15:01:33 2022

    compiled        = Mon_Nov_07_19:30:16_2022
    source          = /Users/bylaska/nwchem-releases/nwchem
    nwchem branch   = 7.2.0
    nwchem revision = v7.2.0-beta1-56-ga3bce4567c
    ga revision     = 5.8.0
    use scalapack   = F
    input           = aperiodic_polarizability.nw
    prefix          = Be.
    data base       = ./perm/Be.db
    status          = startup
    nproc           =        8
    time left       =     -1s



           Memory information
           ------------------

    heap     =   26214396 doubles =    200.0 Mbytes
    stack    =   26214401 doubles =    200.0 Mbytes
    global   =   52428800 doubles =    400.0 Mbytes (distinct from heap & stack)
    total    =  104857597 doubles =    800.0 Mbytes
    verify   = yes
    hardfail = no 


           Directory information
           ---------------------

  0 permanent = ./perm
  0 scratch   = ./perm




                                NWChem Input Module
                                -------------------


                      Be polarizability using aperiodic PSPW
                      --------------------------------------

 Scaling coordinates for geometry "geometry" by  1.889725989
 (inverse scale =  0.529177249)



                             Geometry "geometry" -> ""
                             -------------------------

 Output coordinates in angstroms (scale by  1.889725989 to convert to a.u.)

  No.       Tag          Charge          X              Y              Z
 ---- ---------------- ---------- -------------- -------------- --------------
    1 Be                   4.0000     0.00000000     0.00000000     0.00000000

      Atomic Mass 
      ----------- 

      Be                 9.012180


 Effective nuclear repulsion energy (a.u.)       0.0000000000

            Nuclear Dipole moment (a.u.) 
            ----------------------------
        X                 Y               Z
 ---------------- ---------------- ----------------
     0.0000000000     0.0000000000     0.0000000000


            XYZ format geometry
            -------------------
     1
 geometry
 Be                    0.00000000     0.00000000     0.00000000

          ****************************************************
          *                                                  *
          *               NWPW PSPW Calculation              *
          *                                                  *
          * [ (Grassmann/Stiefel manifold implementation)  ] *
          *                                                  *
          *      [ NorthWest Chemistry implementation ]      *
          *                                                  *
          *            version #5.10   06/12/02              *
          *                                                  *
          *    This code was developed by Eric J. Bylaska,   *
          *    and was based upon algorithms and code        *
          *    developed by the group of Prof. John H. Weare *
          *                                                  *
          ****************************************************
     >>>  JOB STARTED       AT Sun Dec 11 15:01:33 2022  <<<
          ================ input data ========================
 pseudopotential is not correctly formatted:Be.vpp                                            

 Generated formatted_filename: ./perm/Be.vpp

 input psi filename:./perm/Be.movecs

 number of processors used:         8
 processor grid           :   8 x   1
 parallel mapping         :2d-hilbert
 parallel mapping         :  balanced
 number of threads        :         1
 parallel io              :       off

 options:
      boundary conditions  = aperiodic   (version4)
      electron spin        = restricted
      exchange-correlation = LDA (Vosko et al) parameterization

 elements involved in the cluster:
      1: Be  valence charge:  2.0000  lmax=  1
             comment    : Hamann pseudopotential
             pseudpotential type            :   0
             highest angular component      :   1
             local potential used           :   1
             number of non-local projections:   1
             aperiodic cutoff radius        :  1.000
             cutoff =   1.219   1.219


 total charge:   0.000

 atomic composition:
     Be  :    1

 number of electrons: spin up=     1 (   1 per task)  down=     1 (   1 per task) (Fourier space)
 number of orbitals : spin up=     1 (   1 per task)  down=     1 (   1 per task) (Fourier space)

 supercell:
      cell_name:  cell_default                                      
      lattice:    a1=<  26.000   0.000   0.000 >
                  a2=<   0.000  26.000   0.000 >
                  a3=<   0.000   0.000  26.000 >
      reciprocal: b1=<   0.242   0.000   0.000 >
                  b2=<   0.000   0.242   0.000 >
                  b3=<   0.000   0.000   0.242 >
      lattice:    a=      26.000 b=     26.000 c=      26.000
                  alpha=  90.000 beta=  90.000 gamma=  90.000
                  omega=     17576.0

      density cutoff= 50.000  fft= 84x 84x 84(   148386 waves    18548 per task)
      wavefnc cutoff= 25.000  fft= 84x 84x 84(    52508 waves     6563 per task)

 technical parameters:
      time step=      5.80     fictitious mass=  400000.0
      tolerance=0.100E-11 (energy)   0.100E-11 (density)
      maximum iterations =      1000 (   10 inner    100 outer )





== Energy Calculation ==


          ============ Grassmann lmbfgs iteration ============
     >>>  ITERATION STARTED AT Sun Dec 11 15:01:50 2022  <<<
    iter.           Energy         DeltaE       DeltaRho 
    ------------------------------------------------------
      10   -0.9934756606E+00   -0.57266E-05    0.17015E-03
      20   -0.9934893467E+00   -0.10801E-06    0.54847E-06
      30   -0.9934895725E+00   -0.29105E-08    0.40893E-09
      40   -0.9934895780E+00   -0.59803E-10    0.60296E-10
      50   -0.9934895781E+00   -0.13387E-11    0.74252E-12
      60   -0.9934895781E+00   -0.72498E-12    0.67871E-15
  *** tolerance ok. iteration terminated
     >>>  ITERATION ENDED   AT Sun Dec 11 15:02:07 2022  <<<


==  Summary Of Results  ==

 number of electrons: spin up=    1.00000  down=    1.00000 (real space)

 total     energy    :  -0.9934895781E+00 (   -0.99349E+00/ion)
 total orbital energy:  -0.4115585741E+00 (   -0.41156E+00/electron)
 hartree   energy    :   0.6929710511E+00 (    0.69297E+00/electron)
 exc-corr  energy    :  -0.3683116825E+00 (   -0.36831E+00/electron)
 ion-ion   energy    :   0.0000000000E+00 (    0.00000E+00/ion)

 kinetic (planewave) :   0.3025235395E+00 (    0.30252E+00/electron)
 V_local (planewave) :  -0.1913844768E+01 (   -0.19138E+01/electron)
 V_nl    (planewave) :   0.2931722818E+00 (    0.29317E+00/electron)
 V_Coul  (planewave) :   0.1385942102E+01 (    0.13859E+01/electron)
 V_xc.   (planewave) :  -0.4793517295E+00 (   -0.47935E+00/electron)
 Virial Coefficient  :  -0.2360418349E+01

 orbital energies:
    -0.2057793E+00 (  -5.600eV)

 Total PSPW energy     :  -0.9934895781E+00


=== Spin Contamination ===

 <Sexact^2> =    0.0000000000000000     
 <S^2>      =    0.0000000000000000     



== Center of Charge ==

spin up     (    0.0000,    0.0000,   -0.0000 )
spin down   (    0.0000,    0.0000,   -0.0000 )
     total  (    0.0000,    0.0000,   -0.0000 )
ionic       (    0.0000,    0.0000,    0.0000 )


== Molecular Dipole wrt Center of Mass ==

mu   =  (   -0.0000,   -0.0000,    0.0000 ) au
|mu| =     0.0000 au,       0.0000 Debye

 output psi filename:./perm/Be.movecs


== Timing ==

cputime in seconds
  prologue    :   0.167889E+02
  main loop   :   0.172423E+02
  epilogue    :   0.180930E-01
  total       :   0.340493E+02
  cputime/step:   0.146121E+00       (     118 evalulations,      51 linesearches)


Time spent doing                        total          step       percent
  total time                 :   0.340539E+02  0.288593E+00       100.0 %
  i/o time                   :   0.103540E+01  0.877460E-02         3.0 %
  FFTs                       :   0.132539E+02  0.112321E+00        38.9 %
  dot products               :   0.147691E+00  0.125162E-02         0.4 %
  geodesic                   :   0.113907E+00  0.965313E-03         0.3 %
  ffm_dgemm                  :   0.139921E-01  0.118577E-03         0.0 %
  fmf_dgemm                  :   0.501903E-01  0.425341E-03         0.1 %
  mmm_dgemm                  :   0.100900E-02  0.855083E-05         0.0 %
  m_diagonalize              :   0.100095E-02  0.848264E-05         0.0 %
  exchange correlation       :   0.833192E+00  0.706095E-02         2.4 %
  local pseudopotentials     :   0.434000E-02  0.367797E-04         0.0 %
  non-local pseudopotentials :   0.150981E+00  0.127950E-02         0.4 %
  structure factors          :   0.163759E-01  0.138779E-03         0.0 %
  phase factors              :   0.120000E-04  0.101695E-06         0.0 %
  masking and packing        :   0.211516E+00  0.179251E-02         0.6 %
  queue fft                  :   0.857406E+00  0.726615E-02         2.5 %
  queue fft (serial)         :   0.388143E+00  0.328934E-02         1.1 %
  queue fft (message passing):   0.443273E+00  0.375655E-02         1.3 %
  non-local psp FFM          :   0.119455E+00  0.101233E-02         0.4 %
  non-local psp FMF          :   0.116520E-01  0.987458E-04         0.0 %
  non-local psp FFM A        :   0.308690E-02  0.261602E-04         0.0 %
  non-local psp FFM B        :   0.322801E-02  0.273560E-04         0.0 %

     >>>  JOB COMPLETED     AT Sun Dec 11 15:02:07 2022  <<<

 Task  times  cpu:       34.1s     wall:       34.1s


                                NWChem Input Module
                                -------------------


          ****************************************************
          *                                                  *
          *               NWPW PSPW Calculation              *
          *                                                  *
          * [ (Grassmann/Stiefel manifold implementation)  ] *
          *                                                  *
          *      [ NorthWest Chemistry implementation ]      *
          *                                                  *
          *            version #5.10   06/12/02              *
          *                                                  *
          *    This code was developed by Eric J. Bylaska,   *
          *    and was based upon algorithms and code        *
          *    developed by the group of Prof. John H. Weare *
          *                                                  *
          ****************************************************
     >>>  JOB STARTED       AT Sun Dec 11 15:02:07 2022  <<<
          ================ input data ========================

 input psi filename:./perm/Be.movecs

 number of processors used:         8
 processor grid           :   8 x   1
 parallel mapping         :2d-hilbert
 parallel mapping         :  balanced
 number of threads        :         1
 parallel io              :       off

 options:
      boundary conditions  = aperiodic   (version4)
      electron spin        = restricted
      exchange-correlation = LDA (Vosko et al) parameterization

 elements involved in the cluster:
      1: Be  valence charge:  2.0000  lmax=  1
             comment    : Hamann pseudopotential
             pseudpotential type            :   0
             highest angular component      :   1
             local potential used           :   1
             number of non-local projections:   1
             aperiodic cutoff radius        :  1.000
             cutoff =   1.219   1.219


 total charge:   0.000

 atomic composition:
     Be  :    1

 real space Electric field:
     Electric Field (au) (   -0.01000    0.00000    0.00000 )
             Center (au) (    0.00000    0.00000    0.00000 )

 number of electrons: spin up=     1 (   1 per task)  down=     1 (   1 per task) (Fourier space)
 number of orbitals : spin up=     1 (   1 per task)  down=     1 (   1 per task) (Fourier space)

 supercell:
      cell_name:  cell_default                                      
      lattice:    a1=<  26.000   0.000   0.000 >
                  a2=<   0.000  26.000   0.000 >
                  a3=<   0.000   0.000  26.000 >
      reciprocal: b1=<   0.242   0.000   0.000 >
                  b2=<   0.000   0.242   0.000 >
                  b3=<   0.000   0.000   0.242 >
      lattice:    a=      26.000 b=     26.000 c=      26.000
                  alpha=  90.000 beta=  90.000 gamma=  90.000
                  omega=     17576.0

      density cutoff= 50.000  fft= 84x 84x 84(   148386 waves    18548 per task)
      wavefnc cutoff= 25.000  fft= 84x 84x 84(    52508 waves     6563 per task)

 technical parameters:
      time step=      5.80     fictitious mass=  400000.0
      tolerance=0.100E-11 (energy)   0.100E-11 (density)
      maximum iterations =      1000 (   10 inner    100 outer )





== Energy Calculation ==


          ============ Grassmann lmbfgs iteration ============
     >>>  ITERATION STARTED AT Sun Dec 11 15:02:24 2022  <<<
    iter.           Energy         DeltaE       DeltaRho 
    ------------------------------------------------------
      10   -0.9956846010E+00   -0.79484E-05    0.16585E-03
      20   -0.9957058132E+00   -0.36363E-06    0.74821E-06
      30   -0.9957070646E+00   -0.21585E-07    0.13262E-07
      40   -0.9957071235E+00   -0.11108E-08    0.18334E-10
      50   -0.9957071263E+00   -0.66034E-10    0.20506E-10
      60   -0.9957071265E+00   -0.25373E-11    0.94517E-12
      70   -0.9957071265E+00   -0.72664E-12    0.47948E-14
  *** tolerance ok. iteration terminated
     >>>  ITERATION ENDED   AT Sun Dec 11 15:02:46 2022  <<<


==  Summary Of Results  ==

 number of electrons: spin up=    1.00000  down=    1.00000 (real space)

 total     energy    :  -0.9957071265E+00 (   -0.99571E+00/ion)

 QM Energies
------------
 total  QM energy    :  -0.9912231795E+00 (   -0.99122E+00/ion)
 total orbital energy:  -0.4155611938E+00 (   -0.41556E+00/electron)
 hartree   energy    :   0.6908641450E+00 (    0.69086E+00/electron)
 exc-corr  energy    :  -0.3672533713E+00 (   -0.36725E+00/electron)
 ion-ion   energy    :   0.0000000000E+00 (    0.00000E+00/ion)

 kinetic (planewave) :   0.3010017283E+00 (    0.30100E+00/electron)
 V_local (planewave) :  -0.1911302069E+01 (   -0.19113E+01/electron)
 V_nl    (planewave) :   0.2909824402E+00 (    0.29098E+00/electron)
 V_Coul  (planewave) :   0.1381728290E+01 (    0.13817E+01/electron)
 V_xc.   (planewave) :  -0.4779715835E+00 (   -0.47797E+00/electron)
 Virial Coefficient  :  -0.2380594045E+01

 Charge+Electric Field Energies
 ------------------------------
 Charge+Electric Field Energy        :  -0.4483947022E-02
 - Charge+Electric Field/Electron    :  -0.4483947022E-02
 - Charge+Electric Field/Ion         :   0.0000000000E+00
 - Charge+Electric Field/Charge Field:   0.0000000000E+00

 orbital energies:
    -0.2077806E+00 (  -5.654eV)

 Total PSPW energy     :  -0.9957071265E+00


=== Spin Contamination ===

 <Sexact^2> =    0.0000000000000000     
 <S^2>      =    0.0000000000000000     



== Center of Charge ==

spin up     (   -0.2242,    0.0000,    0.0000 )
spin down   (   -0.2242,    0.0000,    0.0000 )
     total  (   -0.2242,    0.0000,    0.0000 )
ionic       (    0.0000,    0.0000,    0.0000 )


== Molecular Dipole wrt Center of Mass ==

mu   =  (    0.4484,   -0.0000,   -0.0000 ) au
|mu| =     0.4484 au,       1.1396 Debye

 output psi filename:./perm/Be.movecs


== Timing ==

cputime in seconds
  prologue    :   0.170289E+02
  main loop   :   0.217198E+02
  epilogue    :   0.176660E-01
  total       :   0.387663E+02
  cputime/step:   0.144798E+00       (     150 evalulations,      64 linesearches)


Time spent doing                        total          step       percent
  total time                 :   0.387689E+02  0.258459E+00       100.0 %
  i/o time                   :   0.534850E-01  0.356567E-03         0.1 %
  FFTs                       :   0.166652E+02  0.111101E+00        43.0 %
  dot products               :   0.222650E+00  0.148433E-02         0.6 %
  geodesic                   :   0.141828E+00  0.945520E-03         0.4 %
  ffm_dgemm                  :   0.174372E-01  0.116248E-03         0.0 %
  fmf_dgemm                  :   0.611351E-01  0.407567E-03         0.2 %
  mmm_dgemm                  :   0.130800E-02  0.872000E-05         0.0 %
  m_diagonalize              :   0.118394E-02  0.789294E-05         0.0 %
  exchange correlation       :   0.104634E+01  0.697561E-02         2.7 %
  local pseudopotentials     :   0.535700E-02  0.357133E-04         0.0 %
  non-local pseudopotentials :   0.226625E+00  0.151083E-02         0.6 %
  structure factors          :   0.211739E-01  0.141159E-03         0.1 %
  phase factors              :   0.109990E-04  0.733267E-07         0.0 %
  masking and packing        :   0.260959E+00  0.173973E-02         0.7 %
  queue fft                  :   0.107271E+01  0.715137E-02         2.8 %
  queue fft (serial)         :   0.489640E+00  0.326427E-02         1.3 %
  queue fft (message passing):   0.548914E+00  0.365943E-02         1.4 %
  non-local psp FFM          :   0.185837E+00  0.123891E-02         0.5 %
  non-local psp FMF          :   0.149230E-01  0.994867E-04         0.0 %
  non-local psp FFM A        :   0.348688E-02  0.232458E-04         0.0 %
  non-local psp FFM B        :   0.381200E-02  0.254133E-04         0.0 %

     >>>  JOB COMPLETED     AT Sun Dec 11 15:02:46 2022  <<<

 Task  times  cpu:       38.8s     wall:       38.8s


                                NWChem Input Module
                                -------------------


          ****************************************************
          *                                                  *
          *               NWPW PSPW Calculation              *
          *                                                  *
          * [ (Grassmann/Stiefel manifold implementation)  ] *
          *                                                  *
          *      [ NorthWest Chemistry implementation ]      *
          *                                                  *
          *            version #5.10   06/12/02              *
          *                                                  *
          *    This code was developed by Eric J. Bylaska,   *
          *    and was based upon algorithms and code        *
          *    developed by the group of Prof. John H. Weare *
          *                                                  *
          ****************************************************
     >>>  JOB STARTED       AT Sun Dec 11 15:02:46 2022  <<<
          ================ input data ========================

 input psi filename:./perm/Be.movecs

 number of processors used:         8
 processor grid           :   8 x   1
 parallel mapping         :2d-hilbert
 parallel mapping         :  balanced
 number of threads        :         1
 parallel io              :       off

 options:
      boundary conditions  = aperiodic   (version4)
      electron spin        = restricted
      exchange-correlation = LDA (Vosko et al) parameterization

 elements involved in the cluster:
      1: Be  valence charge:  2.0000  lmax=  1
             comment    : Hamann pseudopotential
             pseudpotential type            :   0
             highest angular component      :   1
             local potential used           :   1
             number of non-local projections:   1
             aperiodic cutoff radius        :  1.000
             cutoff =   1.219   1.219


 total charge:   0.000

 atomic composition:
     Be  :    1

 real space Electric field:
     Electric Field (au) (    0.01000    0.00000    0.00000 )
             Center (au) (    0.00000    0.00000    0.00000 )

 number of electrons: spin up=     1 (   1 per task)  down=     1 (   1 per task) (Fourier space)
 number of orbitals : spin up=     1 (   1 per task)  down=     1 (   1 per task) (Fourier space)

 supercell:
      cell_name:  cell_default                                      
      lattice:    a1=<  26.000   0.000   0.000 >
                  a2=<   0.000  26.000   0.000 >
                  a3=<   0.000   0.000  26.000 >
      reciprocal: b1=<   0.242   0.000   0.000 >
                  b2=<   0.000   0.242   0.000 >
                  b3=<   0.000   0.000   0.242 >
      lattice:    a=      26.000 b=     26.000 c=      26.000
                  alpha=  90.000 beta=  90.000 gamma=  90.000
                  omega=     17576.0

      density cutoff= 50.000  fft= 84x 84x 84(   148386 waves    18548 per task)
      wavefnc cutoff= 25.000  fft= 84x 84x 84(    52508 waves     6563 per task)

 technical parameters:
      time step=      5.80     fictitious mass=  400000.0
      tolerance=0.100E-11 (energy)   0.100E-11 (density)
      maximum iterations =      1000 (   10 inner    100 outer )





== Energy Calculation ==


          ============ Grassmann lmbfgs iteration ============
     >>>  ITERATION STARTED AT Sun Dec 11 15:03:02 2022  <<<
    iter.           Energy         DeltaE       DeltaRho 
    ------------------------------------------------------
      10   -0.9956219062E+00   -0.28630E-04    0.65758E-03
      20   -0.9957022917E+00   -0.14031E-05    0.27502E-05
      30   -0.9957067112E+00   -0.83757E-07    0.37913E-07
      40   -0.9957069327E+00   -0.37052E-08    0.25565E-09
      50   -0.9957069426E+00   -0.23292E-09    0.84081E-10
      60   -0.9957069432E+00   -0.91709E-11    0.23803E-11
      70   -0.9957069433E+00   -0.85354E-12    0.50349E-13
  *** tolerance ok. iteration terminated
     >>>  ITERATION ENDED   AT Sun Dec 11 15:03:24 2022  <<<


==  Summary Of Results  ==

 number of electrons: spin up=    1.00000  down=    1.00000 (real space)

 total     energy    :  -0.9957069433E+00 (   -0.99571E+00/ion)

 QM Energies
------------
 total  QM energy    :  -0.9912236286E+00 (   -0.99122E+00/ion)
 total orbital energy:  -0.4155585788E+00 (   -0.41556E+00/electron)
 hartree   energy    :   0.6908669650E+00 (    0.69087E+00/electron)
 exc-corr  energy    :  -0.3672546558E+00 (   -0.36725E+00/electron)
 ion-ion   energy    :   0.0000000000E+00 (    0.00000E+00/ion)

 kinetic (planewave) :   0.3010032473E+00 (    0.30100E+00/electron)
 V_local (planewave) :  -0.1911305439E+01 (   -0.19113E+01/electron)
 V_nl    (planewave) :   0.2909829390E+00 (    0.29098E+00/electron)
 V_Coul  (planewave) :   0.1381733930E+01 (    0.13817E+01/electron)
 V_xc.   (planewave) :  -0.4779732563E+00 (   -0.47797E+00/electron)
 Virial Coefficient  :  -0.2380578391E+01

 Charge+Electric Field Energies
 ------------------------------
 Charge+Electric Field Energy        :  -0.4483314681E-02
 - Charge+Electric Field/Electron    :  -0.4483314681E-02
 - Charge+Electric Field/Ion         :   0.0000000000E+00
 - Charge+Electric Field/Charge Field:   0.0000000000E+00

 orbital energies:
    -0.2077793E+00 (  -5.654eV)

 Total PSPW energy     :  -0.9957069433E+00


=== Spin Contamination ===

 <Sexact^2> =    0.0000000000000000     
 <S^2>      =    0.0000000000000000     



== Center of Charge ==

spin up     (    0.2242,    0.0000,    0.0000 )
spin down   (    0.2242,    0.0000,    0.0000 )
     total  (    0.2242,    0.0000,    0.0000 )
ionic       (    0.0000,    0.0000,    0.0000 )


== Molecular Dipole wrt Center of Mass ==

mu   =  (   -0.4483,   -0.0000,   -0.0000 ) au
|mu| =     0.4483 au,       1.1395 Debye

 output psi filename:./perm/Be.movecs


== Timing ==

cputime in seconds
  prologue    :   0.167328E+02
  main loop   :   0.219245E+02
  epilogue    :   0.166670E-01
  total       :   0.386739E+02
  cputime/step:   0.142367E+00       (     154 evalulations,      67 linesearches)


Time spent doing                        total          step       percent
  total time                 :   0.386764E+02  0.251145E+00       100.0 %
  i/o time                   :   0.475240E-01  0.308597E-03         0.1 %
  FFTs                       :   0.167818E+02  0.108973E+00        43.4 %
  dot products               :   0.208538E+00  0.135414E-02         0.5 %
  geodesic                   :   0.150008E+00  0.974077E-03         0.4 %
  ffm_dgemm                  :   0.185052E-01  0.120164E-03         0.0 %
  fmf_dgemm                  :   0.636201E-01  0.413117E-03         0.2 %
  mmm_dgemm                  :   0.129000E-02  0.837662E-05         0.0 %
  m_diagonalize              :   0.125393E-02  0.814244E-05         0.0 %
  exchange correlation       :   0.106838E+01  0.693755E-02         2.8 %
  local pseudopotentials     :   0.395900E-02  0.257078E-04         0.0 %
  non-local pseudopotentials :   0.208803E+00  0.135586E-02         0.5 %
  structure factors          :   0.210909E-01  0.136954E-03         0.1 %
  phase factors              :   0.499900E-05  0.324610E-07         0.0 %
  masking and packing        :   0.261502E+00  0.169807E-02         0.7 %
  queue fft                  :   0.108362E+01  0.703651E-02         2.8 %
  queue fft (serial)         :   0.502805E+00  0.326497E-02         1.3 %
  queue fft (message passing):   0.549631E+00  0.356904E-02         1.4 %
  non-local psp FFM          :   0.167709E+00  0.108902E-02         0.4 %
  non-local psp FMF          :   0.153490E-01  0.996688E-04         0.0 %
  non-local psp FFM A        :   0.368987E-02  0.239602E-04         0.0 %
  non-local psp FFM B        :   0.400100E-02  0.259805E-04         0.0 %

     >>>  JOB COMPLETED     AT Sun Dec 11 15:03:24 2022  <<<

 Task  times  cpu:       38.7s     wall:       38.7s


                                NWChem Input Module
                                -------------------


          ****************************************************
          *                                                  *
          *               NWPW PSPW Calculation              *
          *                                                  *
          * [ (Grassmann/Stiefel manifold implementation)  ] *
          *                                                  *
          *      [ NorthWest Chemistry implementation ]      *
          *                                                  *
          *            version #5.10   06/12/02              *
          *                                                  *
          *    This code was developed by Eric J. Bylaska,   *
          *    and was based upon algorithms and code        *
          *    developed by the group of Prof. John H. Weare *
          *                                                  *
          ****************************************************
     >>>  JOB STARTED       AT Sun Dec 11 15:03:24 2022  <<<
          ================ input data ========================

 input psi filename:./perm/Be.movecs

 number of processors used:         8
 processor grid           :   8 x   1
 parallel mapping         :2d-hilbert
 parallel mapping         :  balanced
 number of threads        :         1
 parallel io              :       off

 options:
      boundary conditions  = aperiodic   (version4)
      electron spin        = restricted
      exchange-correlation = LDA (Vosko et al) parameterization

 elements involved in the cluster:
      1: Be  valence charge:  2.0000  lmax=  1
             comment    : Hamann pseudopotential
             pseudpotential type            :   0
             highest angular component      :   1
             local potential used           :   1
             number of non-local projections:   1
             aperiodic cutoff radius        :  1.000
             cutoff =   1.219   1.219


 total charge:   0.000

 atomic composition:
     Be  :    1

 real space Electric field:
     Electric Field (au) (    0.00000   -0.01000    0.00000 )
             Center (au) (    0.00000    0.00000    0.00000 )

 number of electrons: spin up=     1 (   1 per task)  down=     1 (   1 per task) (Fourier space)
 number of orbitals : spin up=     1 (   1 per task)  down=     1 (   1 per task) (Fourier space)

 supercell:
      cell_name:  cell_default                                      
      lattice:    a1=<  26.000   0.000   0.000 >
                  a2=<   0.000  26.000   0.000 >
                  a3=<   0.000   0.000  26.000 >
      reciprocal: b1=<   0.242   0.000   0.000 >
                  b2=<   0.000   0.242   0.000 >
                  b3=<   0.000   0.000   0.242 >
      lattice:    a=      26.000 b=     26.000 c=      26.000
                  alpha=  90.000 beta=  90.000 gamma=  90.000
                  omega=     17576.0

      density cutoff= 50.000  fft= 84x 84x 84(   148386 waves    18548 per task)
      wavefnc cutoff= 25.000  fft= 84x 84x 84(    52508 waves     6563 per task)

 technical parameters:
      time step=      5.80     fictitious mass=  400000.0
      tolerance=0.100E-11 (energy)   0.100E-11 (density)
      maximum iterations =      1000 (   10 inner    100 outer )





== Energy Calculation ==


          ============ Grassmann lmbfgs iteration ============
     >>>  ITERATION STARTED AT Sun Dec 11 15:03:41 2022  <<<
    iter.           Energy         DeltaE       DeltaRho 
    ------------------------------------------------------
      10   -0.9956684711E+00   -0.13626E-04    0.33066E-03
      20   -0.9957051692E+00   -0.57236E-06    0.13419E-05
      30   -0.9957070200E+00   -0.36375E-07    0.15141E-07
      40   -0.9957071208E+00   -0.19663E-08    0.16426E-09
      50   -0.9957071262E+00   -0.11972E-09    0.43238E-10
      60   -0.9957071265E+00   -0.58578E-11    0.14292E-11
      70   -0.9957071265E+00   -0.93325E-12    0.18192E-13
  *** tolerance ok. iteration terminated
     >>>  ITERATION ENDED   AT Sun Dec 11 15:04:03 2022  <<<


==  Summary Of Results  ==

 number of electrons: spin up=    1.00000  down=    1.00000 (real space)

 total     energy    :  -0.9957071265E+00 (   -0.99571E+00/ion)

 QM Energies
------------
 total  QM energy    :  -0.9912231779E+00 (   -0.99122E+00/ion)
 total orbital energy:  -0.4155612737E+00 (   -0.41556E+00/electron)
 hartree   energy    :   0.6908640506E+00 (    0.69086E+00/electron)
 exc-corr  energy    :  -0.3672533239E+00 (   -0.36725E+00/electron)
 ion-ion   energy    :   0.0000000000E+00 (    0.00000E+00/ion)

 kinetic (planewave) :   0.3010016393E+00 (    0.30100E+00/electron)
 V_local (planewave) :  -0.1911301869E+01 (   -0.19113E+01/electron)
 V_nl    (planewave) :   0.2909823766E+00 (    0.29098E+00/electron)
 V_Coul  (planewave) :   0.1381728101E+01 (    0.13817E+01/electron)
 V_xc.   (planewave) :  -0.4779715216E+00 (   -0.47797E+00/electron)
 Virial Coefficient  :  -0.2380594719E+01

 Charge+Electric Field Energies
 ------------------------------
 Charge+Electric Field Energy        :  -0.4483948661E-02
 - Charge+Electric Field/Electron    :  -0.4483948661E-02
 - Charge+Electric Field/Ion         :   0.0000000000E+00
 - Charge+Electric Field/Charge Field:   0.0000000000E+00

 orbital energies:
    -0.2077806E+00 (  -5.654eV)

 Total PSPW energy     :  -0.9957071265E+00


=== Spin Contamination ===

 <Sexact^2> =    0.0000000000000000     
 <S^2>      =    0.0000000000000000     



== Center of Charge ==

spin up     (    0.0000,   -0.2242,    0.0000 )
spin down   (    0.0000,   -0.2242,    0.0000 )
     total  (    0.0000,   -0.2242,    0.0000 )
ionic       (    0.0000,    0.0000,    0.0000 )


== Molecular Dipole wrt Center of Mass ==

mu   =  (   -0.0000,    0.4484,   -0.0000 ) au
|mu| =     0.4484 au,       1.1396 Debye

 output psi filename:./perm/Be.movecs


== Timing ==

cputime in seconds
  prologue    :   0.161096E+02
  main loop   :   0.221020E+02
  epilogue    :   0.175120E-01
  total       :   0.382291E+02
  cputime/step:   0.144457E+00       (     153 evalulations,      66 linesearches)


Time spent doing                        total          step       percent
  total time                 :   0.382316E+02  0.249880E+00       100.0 %
  i/o time                   :   0.459890E-01  0.300582E-03         0.1 %
  FFTs                       :   0.169615E+02  0.110860E+00        44.4 %
  dot products               :   0.217262E+00  0.142001E-02         0.6 %
  geodesic                   :   0.151073E+00  0.987405E-03         0.4 %
  ffm_dgemm                  :   0.191322E-01  0.125047E-03         0.1 %
  fmf_dgemm                  :   0.645731E-01  0.422046E-03         0.2 %
  mmm_dgemm                  :   0.132900E-02  0.868627E-05         0.0 %
  m_diagonalize              :   0.126694E-02  0.828067E-05         0.0 %
  exchange correlation       :   0.105629E+01  0.690386E-02         2.8 %
  local pseudopotentials     :   0.399200E-02  0.260915E-04         0.0 %
  non-local pseudopotentials :   0.215864E+00  0.141088E-02         0.6 %
  structure factors          :   0.208009E-01  0.135954E-03         0.1 %
  phase factors              :   0.599900E-05  0.392092E-07         0.0 %
  masking and packing        :   0.264374E+00  0.172794E-02         0.7 %
  queue fft                  :   0.111127E+01  0.726322E-02         2.9 %
  queue fft (serial)         :   0.502105E+00  0.328173E-02         1.3 %
  queue fft (message passing):   0.576356E+00  0.376704E-02         1.5 %
  non-local psp FFM          :   0.174655E+00  0.114154E-02         0.5 %
  non-local psp FMF          :   0.152930E-01  0.999542E-04         0.0 %
  non-local psp FFM A        :   0.355088E-02  0.232083E-04         0.0 %
  non-local psp FFM B        :   0.393101E-02  0.256929E-04         0.0 %

     >>>  JOB COMPLETED     AT Sun Dec 11 15:04:03 2022  <<<

 Task  times  cpu:       38.2s     wall:       38.2s


                                NWChem Input Module
                                -------------------


          ****************************************************
          *                                                  *
          *               NWPW PSPW Calculation              *
          *                                                  *
          * [ (Grassmann/Stiefel manifold implementation)  ] *
          *                                                  *
          *      [ NorthWest Chemistry implementation ]      *
          *                                                  *
          *            version #5.10   06/12/02              *
          *                                                  *
          *    This code was developed by Eric J. Bylaska,   *
          *    and was based upon algorithms and code        *
          *    developed by the group of Prof. John H. Weare *
          *                                                  *
          ****************************************************
     >>>  JOB STARTED       AT Sun Dec 11 15:04:03 2022  <<<
          ================ input data ========================

 input psi filename:./perm/Be.movecs

 number of processors used:         8
 processor grid           :   8 x   1
 parallel mapping         :2d-hilbert
 parallel mapping         :  balanced
 number of threads        :         1
 parallel io              :       off

 options:
      boundary conditions  = aperiodic   (version4)
      electron spin        = restricted
      exchange-correlation = LDA (Vosko et al) parameterization

 elements involved in the cluster:
      1: Be  valence charge:  2.0000  lmax=  1
             comment    : Hamann pseudopotential
             pseudpotential type            :   0
             highest angular component      :   1
             local potential used           :   1
             number of non-local projections:   1
             aperiodic cutoff radius        :  1.000
             cutoff =   1.219   1.219


 total charge:   0.000

 atomic composition:
     Be  :    1

 real space Electric field:
     Electric Field (au) (    0.00000    0.01000    0.00000 )
             Center (au) (    0.00000    0.00000    0.00000 )

 number of electrons: spin up=     1 (   1 per task)  down=     1 (   1 per task) (Fourier space)
 number of orbitals : spin up=     1 (   1 per task)  down=     1 (   1 per task) (Fourier space)

 supercell:
      cell_name:  cell_default                                      
      lattice:    a1=<  26.000   0.000   0.000 >
                  a2=<   0.000  26.000   0.000 >
                  a3=<   0.000   0.000  26.000 >
      reciprocal: b1=<   0.242   0.000   0.000 >
                  b2=<   0.000   0.242   0.000 >
                  b3=<   0.000   0.000   0.242 >
      lattice:    a=      26.000 b=     26.000 c=      26.000
                  alpha=  90.000 beta=  90.000 gamma=  90.000
                  omega=     17576.0

      density cutoff= 50.000  fft= 84x 84x 84(   148386 waves    18548 per task)
      wavefnc cutoff= 25.000  fft= 84x 84x 84(    52508 waves     6563 per task)

 technical parameters:
      time step=      5.80     fictitious mass=  400000.0
      tolerance=0.100E-11 (energy)   0.100E-11 (density)
      maximum iterations =      1000 (   10 inner    100 outer )





== Energy Calculation ==


          ============ Grassmann lmbfgs iteration ============
     >>>  ITERATION STARTED AT Sun Dec 11 15:04:19 2022  <<<
    iter.           Energy         DeltaE       DeltaRho 
    ------------------------------------------------------
      10   -0.9956219057E+00   -0.28629E-04    0.65758E-03
      20   -0.9957022919E+00   -0.14031E-05    0.27502E-05
      30   -0.9957067113E+00   -0.83744E-07    0.37919E-07
      40   -0.9957069327E+00   -0.37015E-08    0.25537E-09
      50   -0.9957069426E+00   -0.23212E-09    0.84017E-10
      60   -0.9957069432E+00   -0.91911E-11    0.23770E-11
      70   -0.9957069433E+00   -0.85443E-12    0.49982E-13
  *** tolerance ok. iteration terminated
     >>>  ITERATION ENDED   AT Sun Dec 11 15:04:41 2022  <<<


==  Summary Of Results  ==

 number of electrons: spin up=    1.00000  down=    1.00000 (real space)

 total     energy    :  -0.9957069433E+00 (   -0.99571E+00/ion)

 QM Energies
------------
 total  QM energy    :  -0.9912236287E+00 (   -0.99122E+00/ion)
 total orbital energy:  -0.4155585770E+00 (   -0.41556E+00/electron)
 hartree   energy    :   0.6908669670E+00 (    0.69087E+00/electron)
 exc-corr  energy    :  -0.3672546568E+00 (   -0.36725E+00/electron)
 ion-ion   energy    :   0.0000000000E+00 (    0.00000E+00/ion)

 kinetic (planewave) :   0.3010032493E+00 (    0.30100E+00/electron)
 V_local (planewave) :  -0.1911305444E+01 (   -0.19113E+01/electron)
 V_nl    (planewave) :   0.2909829410E+00 (    0.29098E+00/electron)
 V_Coul  (planewave) :   0.1381733934E+01 (    0.13817E+01/electron)
 V_xc.   (planewave) :  -0.4779732577E+00 (   -0.47797E+00/electron)
 Virial Coefficient  :  -0.2380578376E+01

 Charge+Electric Field Energies
 ------------------------------
 Charge+Electric Field Energy        :  -0.4483314607E-02
 - Charge+Electric Field/Electron    :  -0.4483314607E-02
 - Charge+Electric Field/Ion         :   0.0000000000E+00
 - Charge+Electric Field/Charge Field:   0.0000000000E+00

 orbital energies:
    -0.2077793E+00 (  -5.654eV)

 Total PSPW energy     :  -0.9957069433E+00


=== Spin Contamination ===

 <Sexact^2> =    0.0000000000000000     
 <S^2>      =    0.0000000000000000     



== Center of Charge ==

spin up     (    0.0000,    0.2242,    0.0000 )
spin down   (    0.0000,    0.2242,    0.0000 )
     total  (    0.0000,    0.2242,    0.0000 )
ionic       (    0.0000,    0.0000,    0.0000 )


== Molecular Dipole wrt Center of Mass ==

mu   =  (   -0.0000,   -0.4483,   -0.0000 ) au
|mu| =     0.4483 au,       1.1395 Debye

 output psi filename:./perm/Be.movecs


== Timing ==

cputime in seconds
  prologue    :   0.158992E+02
  main loop   :   0.223739E+02
  epilogue    :   0.185170E-01
  total       :   0.382916E+02
  cputime/step:   0.146235E+00       (     153 evalulations,      67 linesearches)


Time spent doing                        total          step       percent
  total time                 :   0.382943E+02  0.250290E+00       100.0 %
  i/o time                   :   0.470390E-01  0.307444E-03         0.1 %
  FFTs                       :   0.171395E+02  0.112023E+00        44.8 %
  dot products               :   0.268072E+00  0.175210E-02         0.7 %
  geodesic                   :   0.158606E+00  0.103664E-02         0.4 %
  ffm_dgemm                  :   0.210002E-01  0.137256E-03         0.1 %
  fmf_dgemm                  :   0.640321E-01  0.418510E-03         0.2 %
  mmm_dgemm                  :   0.136000E-02  0.888890E-05         0.0 %
  m_diagonalize              :   0.123294E-02  0.805842E-05         0.0 %
  exchange correlation       :   0.109774E+01  0.717475E-02         2.9 %
  local pseudopotentials     :   0.401400E-02  0.262353E-04         0.0 %
  non-local pseudopotentials :   0.255999E+00  0.167320E-02         0.7 %
  structure factors          :   0.204299E-01  0.133529E-03         0.1 %
  phase factors              :   0.499900E-05  0.326732E-07         0.0 %
  masking and packing        :   0.269678E+00  0.176260E-02         0.7 %
  queue fft                  :   0.111168E+01  0.726587E-02         2.9 %
  queue fft (serial)         :   0.493292E+00  0.322413E-02         1.3 %
  queue fft (message passing):   0.585109E+00  0.382424E-02         1.5 %
  non-local psp FFM          :   0.213614E+00  0.139617E-02         0.6 %
  non-local psp FMF          :   0.160110E-01  0.104647E-03         0.0 %
  non-local psp FFM A        :   0.333987E-02  0.218292E-04         0.0 %
  non-local psp FFM B        :   0.381502E-02  0.249348E-04         0.0 %

     >>>  JOB COMPLETED     AT Sun Dec 11 15:04:41 2022  <<<

 Task  times  cpu:       38.3s     wall:       38.3s


                                NWChem Input Module
                                -------------------


          ****************************************************
          *                                                  *
          *               NWPW PSPW Calculation              *
          *                                                  *
          * [ (Grassmann/Stiefel manifold implementation)  ] *
          *                                                  *
          *      [ NorthWest Chemistry implementation ]      *
          *                                                  *
          *            version #5.10   06/12/02              *
          *                                                  *
          *    This code was developed by Eric J. Bylaska,   *
          *    and was based upon algorithms and code        *
          *    developed by the group of Prof. John H. Weare *
          *                                                  *
          ****************************************************
     >>>  JOB STARTED       AT Sun Dec 11 15:04:41 2022  <<<
          ================ input data ========================

 input psi filename:./perm/Be.movecs

 number of processors used:         8
 processor grid           :   8 x   1
 parallel mapping         :2d-hilbert
 parallel mapping         :  balanced
 number of threads        :         1
 parallel io              :       off

 options:
      boundary conditions  = aperiodic   (version4)
      electron spin        = restricted
      exchange-correlation = LDA (Vosko et al) parameterization

 elements involved in the cluster:
      1: Be  valence charge:  2.0000  lmax=  1
             comment    : Hamann pseudopotential
             pseudpotential type            :   0
             highest angular component      :   1
             local potential used           :   1
             number of non-local projections:   1
             aperiodic cutoff radius        :  1.000
             cutoff =   1.219   1.219


 total charge:   0.000

 atomic composition:
     Be  :    1

 real space Electric field:
     Electric Field (au) (    0.00000    0.00000   -0.01000 )
             Center (au) (    0.00000    0.00000    0.00000 )

 number of electrons: spin up=     1 (   1 per task)  down=     1 (   1 per task) (Fourier space)
 number of orbitals : spin up=     1 (   1 per task)  down=     1 (   1 per task) (Fourier space)

 supercell:
      cell_name:  cell_default                                      
      lattice:    a1=<  26.000   0.000   0.000 >
                  a2=<   0.000  26.000   0.000 >
                  a3=<   0.000   0.000  26.000 >
      reciprocal: b1=<   0.242   0.000   0.000 >
                  b2=<   0.000   0.242   0.000 >
                  b3=<   0.000   0.000   0.242 >
      lattice:    a=      26.000 b=     26.000 c=      26.000
                  alpha=  90.000 beta=  90.000 gamma=  90.000
                  omega=     17576.0

      density cutoff= 50.000  fft= 84x 84x 84(   148386 waves    18548 per task)
      wavefnc cutoff= 25.000  fft= 84x 84x 84(    52508 waves     6563 per task)

 technical parameters:
      time step=      5.80     fictitious mass=  400000.0
      tolerance=0.100E-11 (energy)   0.100E-11 (density)
      maximum iterations =      1000 (   10 inner    100 outer )





== Energy Calculation ==


          ============ Grassmann lmbfgs iteration ============
     >>>  ITERATION STARTED AT Sun Dec 11 15:04:58 2022  <<<
    iter.           Energy         DeltaE       DeltaRho 
    ------------------------------------------------------
      10   -0.9956684719E+00   -0.13627E-04    0.33065E-03
      20   -0.9957051693E+00   -0.57231E-06    0.13419E-05
      30   -0.9957070200E+00   -0.36379E-07    0.15142E-07
      40   -0.9957071208E+00   -0.19671E-08    0.16421E-09
      50   -0.9957071262E+00   -0.11972E-09    0.43250E-10
      60   -0.9957071265E+00   -0.58444E-11    0.14320E-11
      70   -0.9957071265E+00   -0.92115E-12    0.18478E-13
  *** tolerance ok. iteration terminated
     >>>  ITERATION ENDED   AT Sun Dec 11 15:05:20 2022  <<<


==  Summary Of Results  ==

 number of electrons: spin up=    1.00000  down=    1.00000 (real space)

 total     energy    :  -0.9957071265E+00 (   -0.99571E+00/ion)

 QM Energies
------------
 total  QM energy    :  -0.9912231776E+00 (   -0.99122E+00/ion)
 total orbital energy:  -0.4155612773E+00 (   -0.41556E+00/electron)
 hartree   energy    :   0.6908640463E+00 (    0.69086E+00/electron)
 exc-corr  energy    :  -0.3672533218E+00 (   -0.36725E+00/electron)
 ion-ion   energy    :   0.0000000000E+00 (    0.00000E+00/ion)

 kinetic (planewave) :   0.3010016355E+00 (    0.30100E+00/electron)
 V_local (planewave) :  -0.1911301860E+01 (   -0.19113E+01/electron)
 V_nl    (planewave) :   0.2909823735E+00 (    0.29098E+00/electron)
 V_Coul  (planewave) :   0.1381728093E+01 (    0.13817E+01/electron)
 V_xc.   (planewave) :  -0.4779715188E+00 (   -0.47797E+00/electron)
 Virial Coefficient  :  -0.2380594749E+01

 Charge+Electric Field Energies
 ------------------------------
 Charge+Electric Field Energy        :  -0.4483948881E-02
 - Charge+Electric Field/Electron    :  -0.4483948881E-02
 - Charge+Electric Field/Ion         :   0.0000000000E+00
 - Charge+Electric Field/Charge Field:   0.0000000000E+00

 orbital energies:
    -0.2077806E+00 (  -5.654eV)

 Total PSPW energy     :  -0.9957071265E+00


=== Spin Contamination ===

 <Sexact^2> =    0.0000000000000000     
 <S^2>      =    0.0000000000000000     



== Center of Charge ==

spin up     (    0.0000,    0.0000,   -0.2242 )
spin down   (    0.0000,    0.0000,   -0.2242 )
     total  (    0.0000,    0.0000,   -0.2242 )
ionic       (    0.0000,    0.0000,    0.0000 )


== Molecular Dipole wrt Center of Mass ==

mu   =  (   -0.0000,   -0.0000,    0.4484 ) au
|mu| =     0.4484 au,       1.1396 Debye

 output psi filename:./perm/Be.movecs


== Timing ==

cputime in seconds
  prologue    :   0.166059E+02
  main loop   :   0.220911E+02
  epilogue    :   0.186550E-01
  total       :   0.387156E+02
  cputime/step:   0.144386E+00       (     153 evalulations,      66 linesearches)


Time spent doing                        total          step       percent
  total time                 :   0.387186E+02  0.253063E+00       100.0 %
  i/o time                   :   0.475160E-01  0.310562E-03         0.1 %
  FFTs                       :   0.169360E+02  0.110693E+00        43.7 %
  dot products               :   0.235164E+00  0.153702E-02         0.6 %
  geodesic                   :   0.148343E+00  0.969562E-03         0.4 %
  ffm_dgemm                  :   0.191942E-01  0.125452E-03         0.0 %
  fmf_dgemm                  :   0.634621E-01  0.414785E-03         0.2 %
  mmm_dgemm                  :   0.128300E-02  0.838561E-05         0.0 %
  m_diagonalize              :   0.131994E-02  0.862708E-05         0.0 %
  exchange correlation       :   0.107289E+01  0.701237E-02         2.8 %
  local pseudopotentials     :   0.425300E-02  0.277974E-04         0.0 %
  non-local pseudopotentials :   0.234460E+00  0.153242E-02         0.6 %
  structure factors          :   0.212579E-01  0.138941E-03         0.1 %
  phase factors              :   0.700000E-05  0.457516E-07         0.0 %
  masking and packing        :   0.260068E+00  0.169979E-02         0.7 %
  queue fft                  :   0.107912E+01  0.705309E-02         2.8 %
  queue fft (serial)         :   0.495669E+00  0.323967E-02         1.3 %
  queue fft (message passing):   0.550763E+00  0.359976E-02         1.4 %
  non-local psp FFM          :   0.193167E+00  0.126253E-02         0.5 %
  non-local psp FMF          :   0.153640E-01  0.100418E-03         0.0 %
  non-local psp FFM A        :   0.372987E-02  0.243782E-04         0.0 %
  non-local psp FFM B        :   0.407600E-02  0.266406E-04         0.0 %

     >>>  JOB COMPLETED     AT Sun Dec 11 15:05:20 2022  <<<

 Task  times  cpu:       38.7s     wall:       38.7s


                                NWChem Input Module
                                -------------------


          ****************************************************
          *                                                  *
          *               NWPW PSPW Calculation              *
          *                                                  *
          * [ (Grassmann/Stiefel manifold implementation)  ] *
          *                                                  *
          *      [ NorthWest Chemistry implementation ]      *
          *                                                  *
          *            version #5.10   06/12/02              *
          *                                                  *
          *    This code was developed by Eric J. Bylaska,   *
          *    and was based upon algorithms and code        *
          *    developed by the group of Prof. John H. Weare *
          *                                                  *
          ****************************************************
     >>>  JOB STARTED       AT Sun Dec 11 15:05:20 2022  <<<
          ================ input data ========================

 input psi filename:./perm/Be.movecs

 number of processors used:         8
 processor grid           :   8 x   1
 parallel mapping         :2d-hilbert
 parallel mapping         :  balanced
 number of threads        :         1
 parallel io              :       off

 options:
      boundary conditions  = aperiodic   (version4)
      electron spin        = restricted
      exchange-correlation = LDA (Vosko et al) parameterization

 elements involved in the cluster:
      1: Be  valence charge:  2.0000  lmax=  1
             comment    : Hamann pseudopotential
             pseudpotential type            :   0
             highest angular component      :   1
             local potential used           :   1
             number of non-local projections:   1
             aperiodic cutoff radius        :  1.000
             cutoff =   1.219   1.219


 total charge:   0.000

 atomic composition:
     Be  :    1

 real space Electric field:
     Electric Field (au) (    0.00000    0.00000    0.01000 )
             Center (au) (    0.00000    0.00000    0.00000 )

 number of electrons: spin up=     1 (   1 per task)  down=     1 (   1 per task) (Fourier space)
 number of orbitals : spin up=     1 (   1 per task)  down=     1 (   1 per task) (Fourier space)

 supercell:
      cell_name:  cell_default                                      
      lattice:    a1=<  26.000   0.000   0.000 >
                  a2=<   0.000  26.000   0.000 >
                  a3=<   0.000   0.000  26.000 >
      reciprocal: b1=<   0.242   0.000   0.000 >
                  b2=<   0.000   0.242   0.000 >
                  b3=<   0.000   0.000   0.242 >
      lattice:    a=      26.000 b=     26.000 c=      26.000
                  alpha=  90.000 beta=  90.000 gamma=  90.000
                  omega=     17576.0

      density cutoff= 50.000  fft= 84x 84x 84(   148386 waves    18548 per task)
      wavefnc cutoff= 25.000  fft= 84x 84x 84(    52508 waves     6563 per task)

 technical parameters:
      time step=      5.80     fictitious mass=  400000.0
      tolerance=0.100E-11 (energy)   0.100E-11 (density)
      maximum iterations =      1000 (   10 inner    100 outer )





== Energy Calculation ==


          ============ Grassmann lmbfgs iteration ============
     >>>  ITERATION STARTED AT Sun Dec 11 15:05:36 2022  <<<
    iter.           Energy         DeltaE       DeltaRho 
    ------------------------------------------------------
      10   -0.9956219044E+00   -0.28628E-04    0.65758E-03
      20   -0.9957022918E+00   -0.14031E-05    0.27503E-05
      30   -0.9957067113E+00   -0.83741E-07    0.37920E-07
      40   -0.9957069327E+00   -0.37009E-08    0.25533E-09
      50   -0.9957069426E+00   -0.23217E-09    0.84013E-10
      60   -0.9957069432E+00   -0.91885E-11    0.23769E-11
      70   -0.9957069433E+00   -0.85931E-12    0.50030E-13
  *** tolerance ok. iteration terminated
     >>>  ITERATION ENDED   AT Sun Dec 11 15:05:58 2022  <<<


==  Summary Of Results  ==

 number of electrons: spin up=    1.00000  down=    1.00000 (real space)

 total     energy    :  -0.9957069433E+00 (   -0.99571E+00/ion)

 QM Energies
------------
 total  QM energy    :  -0.9912236287E+00 (   -0.99122E+00/ion)
 total orbital energy:  -0.4155585773E+00 (   -0.41556E+00/electron)
 hartree   energy    :   0.6908669667E+00 (    0.69087E+00/electron)
 exc-corr  energy    :  -0.3672546567E+00 (   -0.36725E+00/electron)
 ion-ion   energy    :   0.0000000000E+00 (    0.00000E+00/ion)

 kinetic (planewave) :   0.3010032490E+00 (    0.30100E+00/electron)
 V_local (planewave) :  -0.1911305443E+01 (   -0.19113E+01/electron)
 V_nl    (planewave) :   0.2909829407E+00 (    0.29098E+00/electron)
 V_Coul  (planewave) :   0.1381733933E+01 (    0.13817E+01/electron)
 V_xc.   (planewave) :  -0.4779732574E+00 (   -0.47797E+00/electron)
 Virial Coefficient  :  -0.2380578378E+01

 Charge+Electric Field Energies
 ------------------------------
 Charge+Electric Field Energy        :  -0.4483314609E-02
 - Charge+Electric Field/Electron    :  -0.4483314609E-02
 - Charge+Electric Field/Ion         :   0.0000000000E+00
 - Charge+Electric Field/Charge Field:   0.0000000000E+00

 orbital energies:
    -0.2077793E+00 (  -5.654eV)

 Total PSPW energy     :  -0.9957069433E+00


=== Spin Contamination ===

 <Sexact^2> =    0.0000000000000000     
 <S^2>      =    0.0000000000000000     



== Center of Charge ==

spin up     (    0.0000,    0.0000,    0.2242 )
spin down   (    0.0000,    0.0000,    0.2242 )
     total  (    0.0000,    0.0000,    0.2242 )
ionic       (    0.0000,    0.0000,    0.0000 )


== Molecular Dipole wrt Center of Mass ==

mu   =  (   -0.0000,   -0.0000,   -0.4483 ) au
|mu| =     0.4483 au,       1.1395 Debye

 output psi filename:./perm/Be.movecs


== Timing ==

cputime in seconds
  prologue    :   0.160165E+02
  main loop   :   0.219657E+02
  epilogue    :   0.168620E-01
  total       :   0.379990E+02
  cputime/step:   0.142634E+00       (     154 evalulations,      67 linesearches)


Time spent doing                        total          step       percent
  total time                 :   0.380015E+02  0.246763E+00       100.0 %
  i/o time                   :   0.463490E-01  0.300968E-03         0.1 %
  FFTs                       :   0.168477E+02  0.109401E+00        44.3 %
  dot products               :   0.195506E+00  0.126952E-02         0.5 %
  geodesic                   :   0.145110E+00  0.942272E-03         0.4 %
  ffm_dgemm                  :   0.183322E-01  0.119040E-03         0.0 %
  fmf_dgemm                  :   0.615211E-01  0.399488E-03         0.2 %
  mmm_dgemm                  :   0.133500E-02  0.866882E-05         0.0 %
  m_diagonalize              :   0.123694E-02  0.803206E-05         0.0 %
  exchange correlation       :   0.106737E+01  0.693100E-02         2.8 %
  local pseudopotentials     :   0.411900E-02  0.267468E-04         0.0 %
  non-local pseudopotentials :   0.196222E+00  0.127417E-02         0.5 %
  structure factors          :   0.208839E-01  0.135610E-03         0.1 %
  phase factors              :   0.499900E-05  0.324610E-07         0.0 %
  masking and packing        :   0.257980E+00  0.167520E-02         0.7 %
  queue fft                  :   0.108020E+01  0.701426E-02         2.8 %
  queue fft (serial)         :   0.492339E+00  0.319701E-02         1.3 %
  queue fft (message passing):   0.553748E+00  0.359577E-02         1.5 %
  non-local psp FFM          :   0.154993E+00  0.100645E-02         0.4 %
  non-local psp FMF          :   0.153680E-01  0.997922E-04         0.0 %
  non-local psp FFM A        :   0.365686E-02  0.237459E-04         0.0 %
  non-local psp FFM B        :   0.402002E-02  0.261040E-04         0.0 %

     >>>  JOB COMPLETED     AT Sun Dec 11 15:05:58 2022  <<<

 Task  times  cpu:       38.0s     wall:       38.0s


                                NWChem Input Module
                                -------------------


 Summary of allocated global arrays
-----------------------------------
  No active global arrays


MA_summarize_allocated_blocks: starting scan ...
MA_summarize_allocated_blocks: scan completed: 0 heap blocks, 0 stack blocks
MA usage statistics:

	allocation statistics:
					      heap	     stack
					      ----	     -----
	current number of blocks	         0	         0
	maximum number of blocks	       299	        10
	current total bytes		         0	         0
	maximum total bytes		  75777040	  15214504
	maximum total K-bytes		     75778	     15215
	maximum total M-bytes		        76	        16


                                     CITATION
                                     --------
                Please cite the following reference when publishing
                           results obtained with NWChem:

          E. Apra, E. J. Bylaska, W. A. de Jong, N. Govind, K. Kowalski,
       T. P. Straatsma, M. Valiev, H. J. J. van Dam, Y. Alexeev, J. Anchell,
       V. Anisimov, F. W. Aquino, R. Atta-Fynn, J. Autschbach, N. P. Bauman,
     J. C. Becca, D. E. Bernholdt, K. Bhaskaran-Nair, S. Bogatko, P. Borowski,
         J. Boschen, J. Brabec, A. Bruner, E. Cauet, Y. Chen, G. N. Chuev,
      C. J. Cramer, J. Daily, M. J. O. Deegan, T. H. Dunning Jr., M. Dupuis,
   K. G. Dyall, G. I. Fann, S. A. Fischer, A. Fonari, H. Fruchtl, L. Gagliardi,
      J. Garza, N. Gawande, S. Ghosh, K. Glaesemann, A. W. Gotz, J. Hammond,
       V. Helms, E. D. Hermes, K. Hirao, S. Hirata, M. Jacquelin, L. Jensen,
   B. G. Johnson, H. Jonsson, R. A. Kendall, M. Klemm, R. Kobayashi, V. Konkov,
      S. Krishnamoorthy, M. Krishnan, Z. Lin, R. D. Lins, R. J. Littlefield,
      A. J. Logsdail, K. Lopata, W. Ma, A. V. Marenich, J. Martin del Campo,
   D. Mejia-Rodriguez, J. E. Moore, J. M. Mullin, T. Nakajima, D. R. Nascimento,
    J. A. Nichols, P. J. Nichols, J. Nieplocha, A. Otero-de-la-Roza, B. Palmer,
    A. Panyala, T. Pirojsirikul, B. Peng, R. Peverati, J. Pittner, L. Pollack,
   R. M. Richard, P. Sadayappan, G. C. Schatz, W. A. Shelton, D. W. Silverstein,
   D. M. A. Smith, T. A. Soares, D. Song, M. Swart, H. L. Taylor, G. S. Thomas,
            V. Tipparaju, D. G. Truhlar, K. Tsemekhman, T. Van Voorhis,
      A. Vazquez-Mayagoitia, P. Verma, O. Villa, A. Vishnu, K. D. Vogiatzis,
        D. Wang, J. H. Weare, M. J. Williamson, T. L. Windus, K. Wolinski,
        A. T. Wong, Q. Wu, C. Yang, Q. Yu, M. Zacharias, Z. Zhang, Y. Zhao,
                                and R. J. Harrison
                        "NWChem: Past, present, and future
                         J. Chem. Phys. 152, 184102 (2020)
                               doi:10.1063/5.0004997

                                      AUTHORS
                                      -------
  E. Apra, E. J. Bylaska, N. Govind, K. Kowalski, M. Valiev, D. Mejia-Rodriguez,
       A. Kunitsa, N. P. Bauman, A. Panyala, W. A. de Jong, T. P. Straatsma,
   H. J. J. van Dam, D. Wang, T. L. Windus, J. Hammond, J. Autschbach, A. Woods,
    K. Bhaskaran-Nair, J. Brabec, K. Lopata, S. A. Fischer, S. Krishnamoorthy,
     M. Jacquelin, W. Ma, M. Klemm, O. Villa, Y. Chen, V. Anisimov, F. Aquino,
     S. Hirata, M. T. Hackler, E. Hermes, L. Jensen, J. E. Moore, J. C. Becca,
      V. Konjkov, T. Risthaus, M. Malagoli, A. Marenich, A. Otero-de-la-Roza,
        J. Mullin, P. Nichols, R. Peverati, J. Pittner, Y. Zhao, P.-D. Fan,
        A. Fonari, M. J. Williamson, R. J. Harrison, J. R. Rehr, M. Dupuis,
     D. Silverstein, D. M. A. Smith, J. Nieplocha, V. Tipparaju, M. Krishnan,
     B. E. Van Kuiken, A. Vazquez-Mayagoitia, M. Swart, Q. Wu, T. Van Voorhis,
     A. A. Auer, M. Nooijen, L. D. Crosby, E. Brown, G. Cisneros, G. I. Fann,
   H. Fruchtl, J. Garza, K. Hirao, R. A. Kendall, J. A. Nichols, K. Tsemekhman,
    K. Wolinski, J. Anchell, D. E. Bernholdt, P. Borowski, T. Clark, D. Clerc,
   H. Dachsel, M. J. O. Deegan, K. Dyall, D. Elwood, E. Glendening, M. Gutowski,
   A. C. Hess, J. Jaffe, B. G. Johnson, J. Ju, R. Kobayashi, R. Kutteh, Z. Lin,
   R. Littlefield, X. Long, B. Meng, T. Nakajima, S. Niu, L. Pollack, M. Rosing,
   K. Glaesemann, G. Sandrone, M. Stave, H. Taylor, G. Thomas, J. H. van Lenthe,
                               A. T. Wong, Z. Zhang.

 Total times  cpu:      264.8s     wall:      264.8s
