 argument  1 = water64.nw
                                         
                                         


              Northwest Computational Chemistry Package (NWChem) 6.8
              ------------------------------------------------------


                    Environmental Molecular Sciences Laboratory
                       Pacific Northwest National Laboratory
                                Richland, WA 99352

                              Copyright (c) 1994-2018
                       Pacific Northwest National Laboratory
                            Battelle Memorial Institute

             NWChem is an open-source computational chemistry package
                        distributed under the terms of the
                      Educational Community License (ECL) 2.0
             A copy of the license is included with this distribution
                              in the LICENSE.TXT file

                                  ACKNOWLEDGMENT
                                  --------------

            This software and its documentation were developed at the
            EMSL at Pacific Northwest National Laboratory, a multiprogram
            national laboratory, operated for the U.S. Department of Energy
            by Battelle under Contract Number DE-AC05-76RL01830. Support
            for this work was provided by the Department of Energy Office
            of Biological and Environmental Research, Office of Basic
            Energy Sciences, and the Office of Advanced Scientific Computing.


           Job information
           ---------------

    hostname        = WE34304
    program         = nwchem
    date            = Sat Sep 22 23:22:36 2018

    compiled        = Sat_Sep_22_17:11:11_2018
    source          = /Users/bylaska/nwchem-releases/nwchem-new
    nwchem branch   = Development
    nwchem revision = N/A
    ga revision     = 5.6.5
    use scalapack   = F
    input           = water64.nw
    prefix          = eric.
    data base       = ./eric.db
    status          = startup
    nproc           =        4
    time left       =     -1s



           Memory information
           ------------------

    heap     =   62259196 doubles =    475.0 Mbytes
    stack    =   62259201 doubles =    475.0 Mbytes
    global   =  124518400 doubles =    950.0 Mbytes (distinct from heap & stack)
    total    =  249036797 doubles =   1900.0 Mbytes
    verify   = yes
    hardfail = no 


           Directory information
           ---------------------

  0 permanent = .
  0 scratch   = .




                                NWChem Input Module
                                -------------------


                        tequil 300K  64 water md simulation
                        -----------------------------------

 Scaling coordinates for geometry "geometry" by  1.889725989
 (inverse scale =  0.529177249)



                             Geometry "geometry" -> ""
                             -------------------------

 Output coordinates in angstroms (scale by  1.889725989 to convert to a.u.)

  No.       Tag          Charge          X              Y              Z
 ---- ---------------- ---------- -------------- -------------- --------------
    1 O                    8.0000     1.19705450    -0.70248566    -0.74984211
    2 H                    1.0000     1.85705450    -0.99778566    -0.14944211
    3 H                    1.0000     1.27605450    -1.20778566    -1.53884211
    4 O                    8.0000    -1.10504550    -0.56458566     1.75415789
    5 H                    1.0000    -0.74534550    -1.43478566     1.89315789
    6 H                    1.0000    -1.22284550    -0.12848566     2.57615789
    7 O                    8.0000     0.08205450     1.68921434    -1.48284211
    8 H                    1.0000     0.78805450     1.09721434    -1.74784211
    9 H                    1.0000     0.50075450     2.55221434    -1.35884211
   10 O                    8.0000    -2.47794550     1.95221434     1.09115789
   11 H                    1.0000    -3.42594550     1.80521434     1.06915789
   12 H                    1.0000    -2.32494550     2.82321434     1.47415789
   13 O                    8.0000    -1.77194550    -0.37828566    -1.23984211
   14 H                    1.0000    -2.10094550     0.09976434    -2.00084211
   15 H                    1.0000    -2.43494550    -0.40768566    -0.57134211
   16 O                    8.0000     0.66205450     1.45221434     1.46415789
   17 H                    1.0000     1.00605450     2.38021434     1.28715789
   18 H                    1.0000     0.39005450     1.37921434     2.39915789
   19 O                    8.0000    -0.50014550     6.05021434    -1.28184211
   20 H                    1.0000     0.43185450     6.40021434    -1.37784211
   21 H                    1.0000    -1.10794550     6.54621434    -1.90184211
   22 O                    8.0000    -0.29459550    -4.23078566    -5.43784211
   23 H                    1.0000     0.44375450    -4.17778566    -6.10984211
   24 H                    1.0000    -1.03504550    -4.79678566    -5.80084211
   25 O                    8.0000     3.80305450     2.91021434    -4.49284211
   26 H                    1.0000     4.55605450     2.30521434    -4.23484211
   27 H                    1.0000     3.97505450     3.82721434    -4.13284211
   28 O                    8.0000    -3.40394550     3.64721434     4.63515789
   29 H                    1.0000    -3.66894550     3.59821434     5.59815789
   30 H                    1.0000    -4.21894550     3.56821434     4.06115789
   31 O                    8.0000     2.56305450    -4.76478566     5.79615789
   32 H                    1.0000     2.57205450    -5.68578566     6.18515789
   33 H                    1.0000     2.85005450    -4.80478566     4.83915789
   34 O                    8.0000    -2.90894550     5.35821434     0.12675789
   35 H                    1.0000    -2.28294550     4.75621434     0.62285789
   36 H                    1.0000    -3.77294550     4.87921434    -0.03522211
   37 O                    8.0000    -3.55394550    -2.75378566     6.04315789
   38 H                    1.0000    -2.83094550    -2.06378566     6.08215789
   39 H                    1.0000    -3.20494550    -3.62178566     6.39615789
   40 O                    8.0000     3.10305450     0.42961434     3.51615789
   41 H                    1.0000     3.12705450     0.36191434     4.51315789
   42 H                    1.0000     4.03305450     0.35471434     3.15415789
   43 O                    8.0000    -4.09594550    -3.37478566    -1.83384211
   44 H                    1.0000    -4.15194550    -2.53078566    -2.36584211
   45 H                    1.0000    -3.28294550    -3.88878566    -2.10884211
   46 O                    8.0000     1.59605450    -4.17078566     1.79315789
   47 H                    1.0000     1.53505450    -4.04678566     0.80285789
   48 H                    1.0000     1.02805450    -3.48678566     2.25115789
   49 O                    8.0000     2.09605450    -1.81978566     5.94915789
   50 H                    1.0000     2.77105450    -1.19278566     6.33715789
   51 H                    1.0000     2.33105450    -2.75878566     6.20015789
   52 O                    8.0000    -0.90794550    -3.02278566     0.74525789
   53 H                    1.0000    -1.13974550    -3.99478566     0.77045789
   54 H                    1.0000    -0.72924550    -2.74678566    -0.19934211
   55 O                    8.0000     2.02905450     4.90021434    -5.77284211
   56 H                    1.0000     1.09305450     4.62021434    -5.98584211
   57 H                    1.0000     2.63305450     4.10421434    -5.82184211
   58 O                    8.0000     3.94505450    -5.38878566     3.21415789
   59 H                    1.0000     3.24505450    -5.19078566     2.52815789
   60 H                    1.0000     4.83305450    -5.48678566     2.76615789
   61 O                    8.0000     1.35805450    -5.89978566    -3.41384211
   62 H                    1.0000     1.80305450    -6.42678566    -4.13884211
   63 H                    1.0000     0.73705450    -5.23078566    -3.82284211
   64 O                    8.0000     0.02095450     6.02621434     3.31615789
   65 H                    1.0000     0.44435450     6.91121434     3.12315789
   66 H                    1.0000    -0.09004550     5.91821434     4.30315789
   67 O                    8.0000     5.72505450     0.70251434    -3.61084211
   68 H                    1.0000     6.10605450    -0.20088566    -3.80684211
   69 H                    1.0000     5.52805450     0.77531434    -2.63284211
   70 O                    8.0000    -4.77794550    -6.09478566    -3.36684211
   71 H                    1.0000    -4.70794550    -5.78678566    -2.41884211
   72 H                    1.0000    -5.18994550    -5.37278566    -3.92284211
   73 O                    8.0000    -3.34494550    -4.54878566     3.33415789
   74 H                    1.0000    -3.04294550    -3.79678566     3.92015789
   75 H                    1.0000    -3.32194550    -4.25678566     2.37815789
   76 O                    8.0000    -2.71394550    -5.61478566    -5.98684211
   77 H                    1.0000    -2.97394550    -6.35778566    -5.36884211
   78 H                    1.0000    -3.32294550    -5.61378566    -6.77984211
   79 O                    8.0000    -5.26594550     5.46721434     2.57915789
   80 H                    1.0000    -4.68494550     6.01321434     1.97515789
   81 H                    1.0000    -5.31494550     5.90421434     3.47815789
   82 O                    8.0000    -3.16494550     3.99921434    -4.55184211
   83 H                    1.0000    -2.50294550     3.76021434    -3.84184211
   84 H                    1.0000    -3.88394550     4.57321434    -4.15784211
   85 O                    8.0000     4.43205450     5.63021434    -3.17584211
   86 H                    1.0000     3.61005450     6.05521434    -2.79784211
   87 H                    1.0000     5.01605450     6.33521434    -3.57884211
   88 O                    8.0000     5.52305450     3.69321434     4.39515789
   89 H                    1.0000     5.09905450     3.87521434     5.28315789
   90 H                    1.0000     5.49105450     4.52021434     3.83415789
   91 O                    8.0000     5.55805450    -4.42878566    -4.53684211
   92 H                    1.0000     5.93805450    -3.70578566    -5.11384211
   93 H                    1.0000     4.74005450    -4.80578566    -4.97184211
   94 O                    8.0000    -4.31294550    -4.63178566     0.72505789
   95 H                    1.0000    -3.80294550    -5.48278566     0.59805789
   96 H                    1.0000    -4.08094550    -3.99178566    -0.00811211
   97 O                    8.0000     3.17805450    -1.78478566     1.04015789
   98 H                    1.0000     3.78005450    -1.29678566     1.67315789
   99 H                    1.0000     2.73705450    -2.54478566     1.51815789
  100 O                    8.0000    -5.04694550     2.73221434     1.38915789
  101 H                    1.0000    -5.41094550     3.42721434     2.00915789
  102 H                    1.0000    -5.79694550     2.32921434     0.86365789
  103 O                    8.0000    -1.96894550     0.85221434    -3.70884211
  104 H                    1.0000    -1.63694550     0.89991434    -4.65084211
  105 H                    1.0000    -2.59194550     1.61521434    -3.53584211
  106 O                    8.0000     1.98605450     3.58821434     2.81215789
  107 H                    1.0000     2.85005450     3.09221434     2.90215789
  108 H                    1.0000     2.13505450     4.55621434     3.01115789
  109 O                    8.0000    -0.10214550     0.14408434    -5.67684211
  110 H                    1.0000     0.63605450    -0.46038566    -5.97684211
  111 H                    1.0000     0.26605450     1.05701434    -5.49984211
  112 O                    8.0000     2.15005450    -3.71478566    -0.98144211
  113 H                    1.0000     2.04705450    -3.93278566    -1.95184211
  114 H                    1.0000     3.11005450    -3.80978566    -0.71864211
  115 O                    8.0000    -4.35094550    -1.13178566     3.44415789
  116 H                    1.0000    -4.06994550    -0.19018566     3.62915789
  117 H                    1.0000    -4.90394550    -1.47078566     4.20515789
  118 O                    8.0000    -0.28710550    -1.76078566    -3.17484211
  119 H                    1.0000    -0.64734550    -2.69378566    -3.15484211
  120 H                    1.0000    -0.67304550    -1.27178566    -3.95684211
  121 O                    8.0000    -0.80824550     1.17421434     3.72115789
  122 H                    1.0000    -0.68754550     0.68041434     4.58215789
  123 H                    1.0000    -1.23604550     2.06021434     3.90215789
  124 O                    8.0000     3.78805450     0.52831434    -5.84684211
  125 H                    1.0000     4.57905450     0.13871434    -5.37484211
  126 H                    1.0000     3.82605450     1.52621434    -5.79284211
  127 O                    8.0000    -4.03294550    -0.39798566    -2.31284211
  128 H                    1.0000    -4.93094550    -0.77558566    -2.08384211
  129 H                    1.0000    -4.10894550     0.59211434    -2.43184211
  130 O                    8.0000     2.65705450     5.86721434    -0.45544211
  131 H                    1.0000     3.41605450     6.50721434    -0.57484211
  132 H                    1.0000     2.37805450     5.85521434     0.50495789
  133 O                    8.0000    -5.46394550    -5.37978566     5.00315789
  134 H                    1.0000    -6.31494550    -4.87978566     5.16515789
  135 H                    1.0000    -4.86194550    -4.83178566     4.42115789
  136 O                    8.0000     5.08105450    -4.40778566    -0.52094211
  137 H                    1.0000     5.70405450    -5.18578566    -0.44014211
  138 H                    1.0000     5.22305450    -3.78578566     0.24965789
  139 O                    8.0000     5.71805450    -1.58678566    -0.73234211
  140 H                    1.0000     4.82205450    -1.84678566    -0.37184211
  141 H                    1.0000     6.13805450    -2.37578566    -1.18184211
  142 O                    8.0000     2.53805450     2.89221434    -1.20584211
  143 H                    1.0000     1.98205450     3.15321434    -0.41704211
  144 H                    1.0000     3.08605450     3.67521434    -1.50084211
  145 O                    8.0000    -0.79044550     4.15921434     6.12815789
  146 H                    1.0000    -1.47194550     3.88821434     5.44815789
  147 H                    1.0000    -1.23364550     4.27221434     7.01715789
  148 O                    8.0000    -6.14794550    -1.57378566    -5.34284211
  149 H                    1.0000    -5.22694550    -1.88878566    -5.57284211
  150 H                    1.0000    -6.77194550    -1.79278566    -6.09184211
  151 O                    8.0000    -0.26404550     3.85421434    -3.25284211
  152 H                    1.0000     0.27055450     3.80821434    -4.09684211
  153 H                    1.0000     0.02795450     4.64521434    -2.71584211
  154 O                    8.0000     5.47805450     0.04322434     1.92315789
  155 H                    1.0000     5.55705450     0.12954434     0.93015789
  156 H                    1.0000     5.92305450     0.82371434     2.36215789
  157 O                    8.0000     0.39005450     4.04221434     0.40275789
  158 H                    1.0000     0.33625450     4.23021434     1.38315789
  159 H                    1.0000    -0.07184550     4.77221434    -0.10154211
  160 O                    8.0000    -4.08394550     0.88261434     6.03615789
  161 H                    1.0000    -5.03894550     0.63381434     6.19815789
  162 H                    1.0000    -3.79194550     1.54821434     6.72215789
  163 O                    8.0000    -5.81594550     3.49221434    -2.65084211
  164 H                    1.0000    -5.69794550     4.31721434    -3.20384211
  165 H                    1.0000    -6.76694550     3.42721434    -2.34784211
  166 O                    8.0000     5.69605450    -2.96878566     1.97315789
  167 H                    1.0000     6.60105450    -3.39278566     2.00315789
  168 H                    1.0000     5.77805450    -1.99378566     2.17815789
  169 O                    8.0000     4.85805450     1.20621434    -0.74204211
  170 H                    1.0000     4.51005450     0.26881434    -0.76354211
  171 H                    1.0000     4.10705450     1.84421434    -0.91704211
  172 O                    8.0000     1.79105450     0.43791434    -3.26184211
  173 H                    1.0000     1.53205450    -0.42198566    -3.70084211
  174 H                    1.0000     2.55005450     0.85301434    -3.76284211
  175 O                    8.0000     0.90505450    -1.80478566     3.30715789
  176 H                    1.0000     1.11605450    -1.86178566     4.28215789
  177 H                    1.0000     1.50305450    -1.12978566     2.87515789
  178 O                    8.0000    -1.73294550     4.14121434     2.50015789
  179 H                    1.0000    -2.51694550     4.04821434     3.11315789
  180 H                    1.0000    -1.13104550     4.86521434     2.83515789
  181 O                    8.0000     4.88105450    -3.26878566     4.88915789
  182 H                    1.0000     4.96105450    -2.94478566     3.94715789
  183 H                    1.0000     4.02605450    -3.77578566     4.99615789
  184 O                    8.0000    -3.92794550    -0.63588566     0.62225789
  185 H                    1.0000    -3.90394550    -0.77188566     1.61315789
  186 H                    1.0000    -4.69494550    -1.14678566     0.23415789
  187 O                    8.0000    -3.32294550     2.48321434    -1.78684211
  188 H                    1.0000    -4.20694550     2.80421434    -2.12584211
  189 H                    1.0000    -3.12194550     2.92421434    -0.91154211
  190 O                    8.0000    -2.13694550    -4.80178566    -3.22684211
  191 H                    1.0000    -1.43594550    -4.66078566    -3.92684211
  192 H                    1.0000    -2.98094550    -5.11678566    -3.66084211

      Atomic Mass 
      ----------- 

      O                 15.994910
      H                  1.007825


 Effective nuclear repulsion energy (a.u.)   15986.0827346540

            Nuclear Dipole moment (a.u.) 
            ----------------------------
        X                 Y               Z
 ---------------- ---------------- ----------------
     0.0000000000    -0.0000000000    -0.0000000000


            XYZ format geometry
            -------------------
   192
 geometry
 O                     1.19705450    -0.70248566    -0.74984211
 H                     1.85705450    -0.99778566    -0.14944211
 H                     1.27605450    -1.20778566    -1.53884211
 O                    -1.10504550    -0.56458566     1.75415789
 H                    -0.74534550    -1.43478566     1.89315789
 H                    -1.22284550    -0.12848566     2.57615789
 O                     0.08205450     1.68921434    -1.48284211
 H                     0.78805450     1.09721434    -1.74784211
 H                     0.50075450     2.55221434    -1.35884211
 O                    -2.47794550     1.95221434     1.09115789
 H                    -3.42594550     1.80521434     1.06915789
 H                    -2.32494550     2.82321434     1.47415789
 O                    -1.77194550    -0.37828566    -1.23984211
 H                    -2.10094550     0.09976434    -2.00084211
 H                    -2.43494550    -0.40768566    -0.57134211
 O                     0.66205450     1.45221434     1.46415789
 H                     1.00605450     2.38021434     1.28715789
 H                     0.39005450     1.37921434     2.39915789
 O                    -0.50014550     6.05021434    -1.28184211
 H                     0.43185450     6.40021434    -1.37784211
 H                    -1.10794550     6.54621434    -1.90184211
 O                    -0.29459550    -4.23078566    -5.43784211
 H                     0.44375450    -4.17778566    -6.10984211
 H                    -1.03504550    -4.79678566    -5.80084211
 O                     3.80305450     2.91021434    -4.49284211
 H                     4.55605450     2.30521434    -4.23484211
 H                     3.97505450     3.82721434    -4.13284211
 O                    -3.40394550     3.64721434     4.63515789
 H                    -3.66894550     3.59821434     5.59815789
 H                    -4.21894550     3.56821434     4.06115789
 O                     2.56305450    -4.76478566     5.79615789
 H                     2.57205450    -5.68578566     6.18515789
 H                     2.85005450    -4.80478566     4.83915789
 O                    -2.90894550     5.35821434     0.12675789
 H                    -2.28294550     4.75621434     0.62285789
 H                    -3.77294550     4.87921434    -0.03522211
 O                    -3.55394550    -2.75378566     6.04315789
 H                    -2.83094550    -2.06378566     6.08215789
 H                    -3.20494550    -3.62178566     6.39615789
 O                     3.10305450     0.42961434     3.51615789
 H                     3.12705450     0.36191434     4.51315789
 H                     4.03305450     0.35471434     3.15415789
 O                    -4.09594550    -3.37478566    -1.83384211
 H                    -4.15194550    -2.53078566    -2.36584211
 H                    -3.28294550    -3.88878566    -2.10884211
 O                     1.59605450    -4.17078566     1.79315789
 H                     1.53505450    -4.04678566     0.80285789
 H                     1.02805450    -3.48678566     2.25115789
 O                     2.09605450    -1.81978566     5.94915789
 H                     2.77105450    -1.19278566     6.33715789
 H                     2.33105450    -2.75878566     6.20015789
 O                    -0.90794550    -3.02278566     0.74525789
 H                    -1.13974550    -3.99478566     0.77045789
 H                    -0.72924550    -2.74678566    -0.19934211
 O                     2.02905450     4.90021434    -5.77284211
 H                     1.09305450     4.62021434    -5.98584211
 H                     2.63305450     4.10421434    -5.82184211
 O                     3.94505450    -5.38878566     3.21415789
 H                     3.24505450    -5.19078566     2.52815789
 H                     4.83305450    -5.48678566     2.76615789
 O                     1.35805450    -5.89978566    -3.41384211
 H                     1.80305450    -6.42678566    -4.13884211
 H                     0.73705450    -5.23078566    -3.82284211
 O                     0.02095450     6.02621434     3.31615789
 H                     0.44435450     6.91121434     3.12315789
 H                    -0.09004550     5.91821434     4.30315789
 O                     5.72505450     0.70251434    -3.61084211
 H                     6.10605450    -0.20088566    -3.80684211
 H                     5.52805450     0.77531434    -2.63284211
 O                    -4.77794550    -6.09478566    -3.36684211
 H                    -4.70794550    -5.78678566    -2.41884211
 H                    -5.18994550    -5.37278566    -3.92284211
 O                    -3.34494550    -4.54878566     3.33415789
 H                    -3.04294550    -3.79678566     3.92015789
 H                    -3.32194550    -4.25678566     2.37815789
 O                    -2.71394550    -5.61478566    -5.98684211
 H                    -2.97394550    -6.35778566    -5.36884211
 H                    -3.32294550    -5.61378566    -6.77984211
 O                    -5.26594550     5.46721434     2.57915789
 H                    -4.68494550     6.01321434     1.97515789
 H                    -5.31494550     5.90421434     3.47815789
 O                    -3.16494550     3.99921434    -4.55184211
 H                    -2.50294550     3.76021434    -3.84184211
 H                    -3.88394550     4.57321434    -4.15784211
 O                     4.43205450     5.63021434    -3.17584211
 H                     3.61005450     6.05521434    -2.79784211
 H                     5.01605450     6.33521434    -3.57884211
 O                     5.52305450     3.69321434     4.39515789
 H                     5.09905450     3.87521434     5.28315789
 H                     5.49105450     4.52021434     3.83415789
 O                     5.55805450    -4.42878566    -4.53684211
 H                     5.93805450    -3.70578566    -5.11384211
 H                     4.74005450    -4.80578566    -4.97184211
 O                    -4.31294550    -4.63178566     0.72505789
 H                    -3.80294550    -5.48278566     0.59805789
 H                    -4.08094550    -3.99178566    -0.00811211
 O                     3.17805450    -1.78478566     1.04015789
 H                     3.78005450    -1.29678566     1.67315789
 H                     2.73705450    -2.54478566     1.51815789
 O                    -5.04694550     2.73221434     1.38915789
 H                    -5.41094550     3.42721434     2.00915789
 H                    -5.79694550     2.32921434     0.86365789
 O                    -1.96894550     0.85221434    -3.70884211
 H                    -1.63694550     0.89991434    -4.65084211
 H                    -2.59194550     1.61521434    -3.53584211
 O                     1.98605450     3.58821434     2.81215789
 H                     2.85005450     3.09221434     2.90215789
 H                     2.13505450     4.55621434     3.01115789
 O                    -0.10214550     0.14408434    -5.67684211
 H                     0.63605450    -0.46038566    -5.97684211
 H                     0.26605450     1.05701434    -5.49984211
 O                     2.15005450    -3.71478566    -0.98144211
 H                     2.04705450    -3.93278566    -1.95184211
 H                     3.11005450    -3.80978566    -0.71864211
 O                    -4.35094550    -1.13178566     3.44415789
 H                    -4.06994550    -0.19018566     3.62915789
 H                    -4.90394550    -1.47078566     4.20515789
 O                    -0.28710550    -1.76078566    -3.17484211
 H                    -0.64734550    -2.69378566    -3.15484211
 H                    -0.67304550    -1.27178566    -3.95684211
 O                    -0.80824550     1.17421434     3.72115789
 H                    -0.68754550     0.68041434     4.58215789
 H                    -1.23604550     2.06021434     3.90215789
 O                     3.78805450     0.52831434    -5.84684211
 H                     4.57905450     0.13871434    -5.37484211
 H                     3.82605450     1.52621434    -5.79284211
 O                    -4.03294550    -0.39798566    -2.31284211
 H                    -4.93094550    -0.77558566    -2.08384211
 H                    -4.10894550     0.59211434    -2.43184211
 O                     2.65705450     5.86721434    -0.45544211
 H                     3.41605450     6.50721434    -0.57484211
 H                     2.37805450     5.85521434     0.50495789
 O                    -5.46394550    -5.37978566     5.00315789
 H                    -6.31494550    -4.87978566     5.16515789
 H                    -4.86194550    -4.83178566     4.42115789
 O                     5.08105450    -4.40778566    -0.52094211
 H                     5.70405450    -5.18578566    -0.44014211
 H                     5.22305450    -3.78578566     0.24965789
 O                     5.71805450    -1.58678566    -0.73234211
 H                     4.82205450    -1.84678566    -0.37184211
 H                     6.13805450    -2.37578566    -1.18184211
 O                     2.53805450     2.89221434    -1.20584211
 H                     1.98205450     3.15321434    -0.41704211
 H                     3.08605450     3.67521434    -1.50084211
 O                    -0.79044550     4.15921434     6.12815789
 H                    -1.47194550     3.88821434     5.44815789
 H                    -1.23364550     4.27221434     7.01715789
 O                    -6.14794550    -1.57378566    -5.34284211
 H                    -5.22694550    -1.88878566    -5.57284211
 H                    -6.77194550    -1.79278566    -6.09184211
 O                    -0.26404550     3.85421434    -3.25284211
 H                     0.27055450     3.80821434    -4.09684211
 H                     0.02795450     4.64521434    -2.71584211
 O                     5.47805450     0.04322434     1.92315789
 H                     5.55705450     0.12954434     0.93015789
 H                     5.92305450     0.82371434     2.36215789
 O                     0.39005450     4.04221434     0.40275789
 H                     0.33625450     4.23021434     1.38315789
 H                    -0.07184550     4.77221434    -0.10154211
 O                    -4.08394550     0.88261434     6.03615789
 H                    -5.03894550     0.63381434     6.19815789
 H                    -3.79194550     1.54821434     6.72215789
 O                    -5.81594550     3.49221434    -2.65084211
 H                    -5.69794550     4.31721434    -3.20384211
 H                    -6.76694550     3.42721434    -2.34784211
 O                     5.69605450    -2.96878566     1.97315789
 H                     6.60105450    -3.39278566     2.00315789
 H                     5.77805450    -1.99378566     2.17815789
 O                     4.85805450     1.20621434    -0.74204211
 H                     4.51005450     0.26881434    -0.76354211
 H                     4.10705450     1.84421434    -0.91704211
 O                     1.79105450     0.43791434    -3.26184211
 H                     1.53205450    -0.42198566    -3.70084211
 H                     2.55005450     0.85301434    -3.76284211
 O                     0.90505450    -1.80478566     3.30715789
 H                     1.11605450    -1.86178566     4.28215789
 H                     1.50305450    -1.12978566     2.87515789
 O                    -1.73294550     4.14121434     2.50015789
 H                    -2.51694550     4.04821434     3.11315789
 H                    -1.13104550     4.86521434     2.83515789
 O                     4.88105450    -3.26878566     4.88915789
 H                     4.96105450    -2.94478566     3.94715789
 H                     4.02605450    -3.77578566     4.99615789
 O                    -3.92794550    -0.63588566     0.62225789
 H                    -3.90394550    -0.77188566     1.61315789
 H                    -4.69494550    -1.14678566     0.23415789
 O                    -3.32294550     2.48321434    -1.78684211
 H                    -4.20694550     2.80421434    -2.12584211
 H                    -3.12194550     2.92421434    -0.91154211
 O                    -2.13694550    -4.80178566    -3.22684211
 H                    -1.43594550    -4.66078566    -3.92684211
 H                    -2.98094550    -5.11678566    -3.66084211

 ==============================================================================
                                internuclear distances
 ------------------------------------------------------------------------------
       center one      |      center two      | atomic units |  angstroms
 ------------------------------------------------------------------------------
    2 H                |   1 O                |     1.77602  |     0.93983
    3 H                |   1 O                |     1.77683  |     0.94026
    5 H                |   4 O                |     1.79867  |     0.95182
    6 H                |   4 O                |     1.77246  |     0.93795
    8 H                |   7 O                |     1.81170  |     0.95871
    9 H                |   7 O                |     1.82772  |     0.96719
   11 H                |  10 O                |     1.81335  |     0.95958
   12 H                |  10 O                |     1.82115  |     0.96371
   14 H                |  13 O                |     1.80851  |     0.95702
   15 H                |  13 O                |     1.78008  |     0.94198
   17 H                |  16 O                |     1.89995  |     1.00541
   18 H                |  16 O                |     1.84530  |     0.97649
   20 H                |  19 O                |     1.89005  |     1.00017
   21 H                |  19 O                |     1.88957  |     0.99992
   23 H                |  22 O                |     1.88930  |     0.99978
   24 H                |  22 O                |     1.89010  |     1.00020
   26 H                |  25 O                |     1.88935  |     0.99980
   27 H                |  25 O                |     1.88979  |     1.00004
   29 H                |  28 O                |     1.88972  |     1.00000
   30 H                |  28 O                |     1.88967  |     0.99997
   32 H                |  31 O                |     1.88939  |     0.99982
   33 H                |  31 O                |     1.88955  |     0.99991
   35 H                |  34 O                |     1.89010  |     1.00020
   36 H                |  34 O                |     1.89178  |     1.00109
   38 H                |  37 O                |     1.89006  |     1.00017
   39 H                |  37 O                |     1.88957  |     0.99992
   41 H                |  40 O                |     1.88894  |     0.99958
   42 H                |  40 O                |     1.89119  |     1.00078
   44 H                |  43 O                |     1.88830  |     0.99925
   45 H                |  43 O                |     1.89047  |     1.00039
   47 H                |  46 O                |     1.88953  |     0.99990
   48 H                |  46 O                |     1.88996  |     1.00012
   50 H                |  49 O                |     1.88906  |     0.99965
   51 H                |  49 O                |     1.88968  |     0.99997
   53 H                |  52 O                |     1.88892  |     0.99958
   54 H                |  52 O                |     1.89008  |     1.00019
   56 H                |  55 O                |     1.88960  |     0.99993
   57 H                |  55 O                |     1.89051  |     1.00042
   59 H                |  58 O                |     1.88954  |     0.99990
   60 H                |  58 O                |     1.88864  |     0.99943
   62 H                |  61 O                |     1.89103  |     1.00069
   63 H                |  61 O                |     1.89018  |     1.00024
   65 H                |  64 O                |     1.88948  |     0.99987
   66 H                |  64 O                |     1.88798  |     0.99908
   68 H                |  67 O                |     1.88945  |     0.99985
   69 H                |  67 O                |     1.89029  |     1.00030
   71 H                |  70 O                |     1.88828  |     0.99923
   72 H                |  70 O                |     1.88988  |     1.00008
   74 H                |  73 O                |     1.88982  |     1.00005
   75 H                |  73 O                |     1.88947  |     0.99986
   77 H                |  76 O                |     1.89121  |     1.00079
   78 H                |  76 O                |     1.88947  |     0.99987
   80 H                |  79 O                |     1.89019  |     1.00025
   81 H                |  79 O                |     1.89121  |     1.00079
   83 H                |  82 O                |     1.88922  |     0.99973
   84 H                |  82 O                |     1.89131  |     1.00084
   86 H                |  85 O                |     1.88896  |     0.99960
   87 H                |  85 O                |     1.89019  |     1.00024
   89 H                |  88 O                |     1.89109  |     1.00072
   90 H                |  88 O                |     1.88942  |     0.99984
   92 H                |  91 O                |     1.88978  |     1.00003
   93 H                |  91 O                |     1.89018  |     1.00024
   95 H                |  94 O                |     1.89013  |     1.00021
   96 H                |  94 O                |     1.89063  |     1.00048
   98 H                |  97 O                |     1.89089  |     1.00062
   99 H                |  97 O                |     1.89026  |     1.00028
  101 H                | 100 O                |     1.88965  |     0.99996
  102 H                | 100 O                |     1.89073  |     1.00053
  104 H                | 103 O                |     1.88960  |     0.99993
  105 H                | 103 O                |     1.88994  |     1.00011
  107 H                | 106 O                |     1.89030  |     1.00031
  108 H                | 106 O                |     1.88862  |     0.99941
  110 H                | 109 O                |     1.89003  |     1.00016
  111 H                | 109 O                |     1.89005  |     1.00017
  113 H                | 112 O                |     1.88955  |     0.99990
  114 H                | 112 O                |     1.88943  |     0.99984
  116 H                | 115 O                |     1.88953  |     0.99990
  117 H                | 115 O                |     1.88959  |     0.99993
  119 H                | 118 O                |     1.89035  |     1.00033
  120 H                | 118 O                |     1.88934  |     0.99980
  122 H                | 121 O                |     1.88947  |     0.99986
  123 H                | 121 O                |     1.89045  |     1.00038
  125 H                | 124 O                |     1.88997  |     1.00013
  126 H                | 124 O                |     1.88988  |     1.00008
  128 H                | 127 O                |     1.89107  |     1.00071
  129 H                | 127 O                |     1.88995  |     1.00012
  131 H                | 130 O                |     1.88967  |     0.99997
  132 H                | 130 O                |     1.89006  |     1.00018
  134 H                | 133 O                |     1.89015  |     1.00022
  135 H                | 133 O                |     1.89108  |     1.00072
  137 H                | 136 O                |     1.88967  |     0.99997
  138 H                | 136 O                |     1.89055  |     1.00044
  140 H                | 139 O                |     1.89008  |     1.00019
  141 H                | 139 O                |     1.89064  |     1.00049
  143 H                | 142 O                |     1.88922  |     0.99973
  144 H                | 142 O                |     1.89012  |     1.00021
  146 H                | 145 O                |     1.88999  |     1.00014
  147 H                | 145 O                |     1.88927  |     0.99976
  149 H                | 148 O                |     1.89007  |     1.00018
  150 H                | 148 O                |     1.88815  |     0.99917
  152 H                | 151 O                |     1.88996  |     1.00012
  153 H                | 151 O                |     1.88908  |     0.99966
  155 H                | 154 O                |     1.88948  |     0.99987
  156 H                | 154 O                |     1.88964  |     0.99996
  158 H                | 157 O                |     1.88918  |     0.99971
  159 H                | 157 O                |     1.89026  |     1.00029
  161 H                | 160 O                |     1.88989  |     1.00009
  162 H                | 160 O                |     1.88867  |     0.99944
  164 H                | 163 O                |     1.89006  |     1.00018
  165 H                | 163 O                |     1.89014  |     1.00022
  167 H                | 166 O                |     1.88944  |     0.99985
  168 H                | 166 O                |     1.88913  |     0.99969
  170 H                | 169 O                |     1.89000  |     1.00014
  171 H                | 169 O                |     1.89130  |     1.00083
  173 H                | 172 O                |     1.88900  |     0.99961
  174 H                | 172 O                |     1.88915  |     0.99969
  176 H                | 175 O                |     1.88821  |     0.99920
  177 H                | 175 O                |     1.88959  |     0.99993
  179 H                | 178 O                |     1.88885  |     0.99954
  180 H                | 178 O                |     1.88848  |     0.99934
  182 H                | 181 O                |     1.88854  |     0.99937
  183 H                | 181 O                |     1.88928  |     0.99976
  185 H                | 184 O                |     1.89063  |     1.00048
  186 H                | 184 O                |     1.88966  |     0.99996
  188 H                | 187 O                |     1.88918  |     0.99971
  189 H                | 187 O                |     1.89070  |     1.00052
  191 H                | 190 O                |     1.89094  |     1.00064
  192 H                | 190 O                |     1.88965  |     0.99996
 ------------------------------------------------------------------------------
                         number of included internuclear distances:        128
 ==============================================================================



 ==============================================================================
                                 internuclear angles
 ------------------------------------------------------------------------------
        center 1       |       center 2       |       center 3       |  degrees
 ------------------------------------------------------------------------------
    2 H                |   1 O                |   3 H                |   107.95
    5 H                |   4 O                |   6 H                |   110.16
    8 H                |   7 O                |   9 H                |   105.52
   11 H                |  10 O                |  12 H                |   107.72
   14 H                |  13 O                |  15 H                |   109.75
   17 H                |  16 O                |  18 H                |   109.44
   20 H                |  19 O                |  21 H                |   109.47
   23 H                |  22 O                |  24 H                |   109.44
   26 H                |  25 O                |  27 H                |   109.42
   29 H                |  28 O                |  30 H                |   109.45
   32 H                |  31 O                |  33 H                |   109.45
   35 H                |  34 O                |  36 H                |   109.42
   38 H                |  37 O                |  39 H                |   109.44
   41 H                |  40 O                |  42 H                |   109.48
   44 H                |  43 O                |  45 H                |   109.46
   47 H                |  46 O                |  48 H                |   109.52
   50 H                |  49 O                |  51 H                |   109.44
   53 H                |  52 O                |  54 H                |   109.49
   56 H                |  55 O                |  57 H                |   109.38
   59 H                |  58 O                |  60 H                |   109.51
   62 H                |  61 O                |  63 H                |   109.39
   65 H                |  64 O                |  66 H                |   109.48
   68 H                |  67 O                |  69 H                |   109.42
   71 H                |  70 O                |  72 H                |   109.50
   74 H                |  73 O                |  75 H                |   109.49
   77 H                |  76 O                |  78 H                |   109.41
   80 H                |  79 O                |  81 H                |   109.42
   83 H                |  82 O                |  84 H                |   109.47
   86 H                |  85 O                |  87 H                |   109.44
   89 H                |  88 O                |  90 H                |   109.51
   92 H                |  91 O                |  93 H                |   109.41
   95 H                |  94 O                |  96 H                |   109.45
   98 H                |  97 O                |  99 H                |   109.48
  101 H                | 100 O                | 102 H                |   109.43
  104 H                | 103 O                | 105 H                |   109.47
  107 H                | 106 O                | 108 H                |   109.49
  110 H                | 109 O                | 111 H                |   109.45
  113 H                | 112 O                | 114 H                |   109.47
  116 H                | 115 O                | 117 H                |   109.50
  119 H                | 118 O                | 120 H                |   109.44
  122 H                | 121 O                | 123 H                |   109.46
  125 H                | 124 O                | 126 H                |   109.46
  128 H                | 127 O                | 129 H                |   109.43
  131 H                | 130 O                | 132 H                |   109.52
  134 H                | 133 O                | 135 H                |   109.41
  137 H                | 136 O                | 138 H                |   109.45
  140 H                | 139 O                | 141 H                |   109.45
  143 H                | 142 O                | 144 H                |   109.45
  146 H                | 145 O                | 147 H                |   109.46
  149 H                | 148 O                | 150 H                |   109.49
  152 H                | 151 O                | 153 H                |   109.49
  155 H                | 154 O                | 156 H                |   109.48
  158 H                | 157 O                | 159 H                |   109.41
  161 H                | 160 O                | 162 H                |   109.48
  164 H                | 163 O                | 165 H                |   109.47
  167 H                | 166 O                | 168 H                |   109.46
  170 H                | 169 O                | 171 H                |   109.43
  173 H                | 172 O                | 174 H                |   109.50
  176 H                | 175 O                | 177 H                |   109.50
  179 H                | 178 O                | 180 H                |   109.53
  182 H                | 181 O                | 183 H                |   109.50
  185 H                | 184 O                | 186 H                |   109.47
  188 H                | 187 O                | 189 H                |   109.44
  191 H                | 190 O                | 192 H                |   109.39
 ------------------------------------------------------------------------------
                            number of included internuclear angles:         64
 ==============================================================================



          ****************************************************
          *                                                  *
          *               NWPW PSPW Calculation              *
          *                                                  *
          * [ (Grassmann/Stiefel manifold implementation)  ] *
          *                                                  *
          *      [ NorthWest Chemistry implementation ]      *
          *                                                  *
          *            version #5.10   06/12/02              *
          *                                                  *
          *    This code was developed by Eric J. Bylaska,   *
          *    and was based upon algorithms and code        *
          *    developed by the group of Prof. John H. Weare *
          *                                                  *
          ****************************************************
     >>>  JOB STARTED       AT Sat Sep 22 23:22:36 2018  <<<
          ================ input data ========================
  library name resolved from: compiled reference
  NWCHEM_NWPW_LIBRARY set to: </Users/bylaska/nwchem-releases/nwchem-new/src/nwpw/libraryps/>
 Generating 1d pseudopotential for O   

 Generated formatted_filename: ./O.vpp
  library name resolved from: compiled reference
  NWCHEM_NWPW_LIBRARY set to: </Users/bylaska/nwchem-releases/nwchem-new/src/nwpw/libraryps/>
 Generating 1d pseudopotential for H   

 Generated formatted_filename: ./H.vpp
 random planewave guess, initial psi:eric.movecs                                       
 -   spin, nalpha, nbeta:                    1                  256                    0

 input psi filename:./eric.movecs
 Warning - Gram-Schmidt being performed on psi:   256.00000000000000        164.25235009518323        256.00000000000000        91.747649904816768     

 number of processors used:         4
 processor grid           :   4 x   1
 parallel mapping         :2d hilbert
 parallel mapping         :  balanced
 number of threads        :         1
 parallel io              :       off

 options:
      boundary conditions  = periodic    (version3)
      electron spin        = restricted
      exchange-correlation = LDA (Vosko et al) parameterization

 elements involved in the cluster:
      1: O   valence charge:  6.0000  lmax=  2
             comment    : Parameterized (Chem.Phys.Lett., vol 322, page 447) Hamman psp
             pseudpotential type            :   0
             highest angular component      :   2
             local potential used           :   2
             number of non-local projections:   4
             cutoff =   0.700   0.700   0.700

      2: H   valence charge:  1.0000  lmax=  1
             comment    : Parameterized (Chem.Phys.Lett., vol 322, page 447) Hamman psp
             pseudpotential type            :   0
             highest angular component      :   1
             local potential used           :   1
             number of non-local projections:   1
             cutoff =   0.800   0.800


 total charge:   0.000

 atomic composition:
     O   :   64     H   :  128

 number of electrons: spin up=   256 ( 256 per task)  down=   256 ( 256 per task) (Fourier space)
 number of orbitals : spin up=   256 ( 256 per task)  down=   256 ( 256 per task) (Fourier space)

 supercell:
      cell_name:  cell_default                                      
      lattice:    a1=<  23.260   0.000   0.000 >
                  a2=<   0.000  23.260   0.000 >
                  a3=<   0.000   0.000  23.260 >
      reciprocal: b1=<   0.270   0.000   0.000 >
                  b2=<   0.000   0.270   0.000 >
                  b3=<   0.000   0.000   0.270 >
      lattice:    a=      23.260 b=     23.260 c=      23.260
                  alpha=  90.000 beta=  90.000 gamma=  90.000
                  omega=     12584.3

      density cutoff= 25.000  fft= 54x 54x 54(    37519 waves     9379 per task)
      wavefnc cutoff= 12.500  fft= 54x 54x 54(    13373 waves     3343 per task)
      Ewald summation: cut radius=    7.40  and  1
                       Madelung Wigner-Seitz=    1.76011888 (alpha=    2.83729748 rs=14.42935242)

 technical parameters:
      time step=      5.80     fictitious mass=  400000.0
      tolerance=0.100E-06 (energy)   0.100E-06 (density)
      maximum iterations =      1000 (   10 inner    100 outer )





== Energy Calculation ==


          ============ Grassmann lmbfgs iteration ============
     >>>  ITERATION STARTED AT Sat Sep 22 23:22:39 2018  <<<
    iter.           Energy         DeltaE       DeltaRho 
    ------------------------------------------------------
     -  15 steepest descent iterations performed
