 argument  1 = zeolite-base.nw
  NWChem w/ OpenMP: maximum threads =    1
                                         
                                         


             Northwest Computational Chemistry Package (NWChem) 7.0.1
             --------------------------------------------------------


                    Environmental Molecular Sciences Laboratory
                       Pacific Northwest National Laboratory
                                Richland, WA 99352

                              Copyright (c) 1994-2020
                       Pacific Northwest National Laboratory
                            Battelle Memorial Institute

             NWChem is an open-source computational chemistry package
                        distributed under the terms of the
                      Educational Community License (ECL) 2.0
             A copy of the license is included with this distribution
                              in the LICENSE.TXT file

                                  ACKNOWLEDGMENT
                                  --------------

            This software and its documentation were developed at the
            EMSL at Pacific Northwest National Laboratory, a multiprogram
            national laboratory, operated for the U.S. Department of Energy
            by Battelle under Contract Number DE-AC05-76RL01830. Support
            for this work was provided by the Department of Energy Office
            of Biological and Environmental Research, Office of Basic
            Energy Sciences, and the Office of Advanced Scientific Computing.


           Job information
           ---------------

    hostname        = WE34304
    program         = nwchem
    date            = Wed May 11 13:00:02 2022

    compiled        = Sun_Nov_07_16:28:08_2021
    source          = /Users/bylaska/nwchem-releases/nwchem
    nwchem branch   = 7.0.0
    nwchem revision = nwchem_on_git-2986-g4ee8062ba5
    ga revision     = 5.8.0
    use scalapack   = F
    input           = zeolite-base.nw
    prefix          = ocd7108304.
    data base       = ./perm/ocd7108304.db
    status          = startup
    nproc           =        4
    time left       =     -1s



           Memory information
           ------------------

    heap     =   62259196 doubles =    475.0 Mbytes
    stack    =   62259201 doubles =    475.0 Mbytes
    global   =  124518400 doubles =    950.0 Mbytes (distinct from heap & stack)
    total    =  249036797 doubles =   1900.0 Mbytes
    verify   = yes
    hardfail = no 


           Directory information
           ---------------------

  0 permanent = ./perm
  0 scratch   = ./perm




                                NWChem Input Module
                                -------------------


                             cifocd structure 7108304
                             ------------------------

  !!!!!!!!!  geom_3d NEEDS TESTING !!!!!!!!!! 


                             Geometry "geometry" -> ""
                             -------------------------

 Output coordinates in angstroms (scale by  1.889725989 to convert to a.u.)

  No.       Tag          Charge          X              Y              Z
 ---- ---------------- ---------- -------------- -------------- --------------
    1 Si+4                14.0000     0.00000000     4.38650262     2.18122034
    2 Si+4                14.0000     0.00000000     7.46666738     2.18122034
    3 Si+4                14.0000     0.00000000     4.38650262     9.67194966
    4 Si+4                14.0000     0.00000000     7.46666738     9.67194966
    5 Si+4                14.0000     2.18122034     0.00000000     4.38650262
    6 Si+4                14.0000     2.18122034     0.00000000     7.46666738
    7 Si+4                14.0000     9.67194966     0.00000000     4.38650262
    8 Si+4                14.0000     9.67194966     0.00000000     7.46666738
    9 Si+4                14.0000     4.38650262     2.18122034     0.00000000
   10 Si+4                14.0000     7.46666738     2.18122034     0.00000000
   11 Si+4                14.0000     4.38650262     9.67194966     0.00000000
   12 Si+4                14.0000     7.46666738     9.67194966     0.00000000
   13 Si+4                14.0000     4.38650262     0.00000000     9.67194966
   14 Si+4                14.0000     7.46666738     0.00000000     9.67194966
   15 Si+4                14.0000     4.38650262     0.00000000     2.18122034
   16 Si+4                14.0000     7.46666738     0.00000000     2.18122034
   17 Si+4                14.0000     0.00000000     2.18122034     7.46666738
   18 Si+4                14.0000     0.00000000     2.18122034     4.38650262
   19 Si+4                14.0000     0.00000000     9.67194966     7.46666738
   20 Si+4                14.0000     0.00000000     9.67194966     4.38650262
   21 Si+4                14.0000     2.18122034     4.38650262     0.00000000
   22 Si+4                14.0000     2.18122034     7.46666738     0.00000000
   23 Si+4                14.0000     9.67194966     4.38650262     0.00000000
   24 Si+4                14.0000     9.67194966     7.46666738     0.00000000
   25 O-2                  8.0000     0.00000000     5.92658500     2.64859084
   26 O-2                  8.0000     0.00000000     5.92658500     9.20457916
   27 O-2                  8.0000     2.64859084     0.00000000     5.92658500
   28 O-2                  8.0000     9.20457916     0.00000000     5.92658500
   29 O-2                  8.0000     5.92658500     2.64859084     0.00000000
   30 O-2                  8.0000     5.92658500     9.20457916     0.00000000
   31 O-2                  8.0000     5.92658500     0.00000000     9.20457916
   32 O-2                  8.0000     5.92658500     0.00000000     2.64859084
   33 O-2                  8.0000     0.00000000     2.64859084     5.92658500
   34 O-2                  8.0000     0.00000000     9.20457916     5.92658500
   35 O-2                  8.0000     2.64859084     5.92658500     0.00000000
   36 O-2                  8.0000     9.20457916     5.92658500     0.00000000
   37 O-2                  8.0000     0.00000000     3.45270989     3.45270989
   38 O-2                  8.0000     0.00000000     8.40046011     3.45270989
   39 O-2                  8.0000     0.00000000     3.45270989     8.40046011
   40 O-2                  8.0000     0.00000000     8.40046011     8.40046011
   41 O-2                  8.0000     3.45270989     0.00000000     3.45270989
   42 O-2                  8.0000     3.45270989     0.00000000     8.40046011
   43 O-2                  8.0000     8.40046011     0.00000000     3.45270989
   44 O-2                  8.0000     8.40046011     0.00000000     8.40046011
   45 O-2                  8.0000     3.45270989     3.45270989     0.00000000
   46 O-2                  8.0000     8.40046011     3.45270989     0.00000000
   47 O-2                  8.0000     3.45270989     8.40046011     0.00000000
   48 O-2                  8.0000     8.40046011     8.40046011     0.00000000
   49 O-2                  8.0000     1.28701720     1.28701720     4.12596995
   50 O-2                  8.0000    10.56615280    10.56615280     4.12596995
   51 O-2                  8.0000    10.56615280     1.28701720     7.72720005
   52 O-2                  8.0000     1.28701720    10.56615280     7.72720005
   53 O-2                  8.0000     4.12596995     1.28701720     1.28701720
   54 O-2                  8.0000     4.12596995    10.56615280    10.56615280
   55 O-2                  8.0000     7.72720005    10.56615280     1.28701720
   56 O-2                  8.0000     7.72720005     1.28701720    10.56615280
   57 O-2                  8.0000     1.28701720     4.12596995     1.28701720
   58 O-2                  8.0000    10.56615280     4.12596995    10.56615280
   59 O-2                  8.0000     1.28701720     7.72720005    10.56615280
   60 O-2                  8.0000    10.56615280     7.72720005     1.28701720
   61 O-2                  8.0000     1.28701720     1.28701720     7.72720005
   62 O-2                  8.0000    10.56615280    10.56615280     7.72720005
   63 O-2                  8.0000     1.28701720    10.56615280     4.12596995
   64 O-2                  8.0000    10.56615280     1.28701720     4.12596995
   65 O-2                  8.0000     1.28701720     4.12596995    10.56615280
   66 O-2                  8.0000    10.56615280     4.12596995     1.28701720
   67 O-2                  8.0000    10.56615280     7.72720005    10.56615280
   68 O-2                  8.0000     1.28701720     7.72720005     1.28701720
   69 O-2                  8.0000     4.12596995     1.28701720    10.56615280
   70 O-2                  8.0000     4.12596995    10.56615280     1.28701720
   71 O-2                  8.0000     7.72720005     1.28701720     1.28701720
   72 O-2                  8.0000     7.72720005    10.56615280    10.56615280

      Lattice Parameters 
      ------------------ 

      lattice vectors in angstroms (scale by  1.889725989 to convert to a.u.)

      a1=<  11.853   0.000   0.000 >
      a2=<   0.000  11.853   0.000 >
      a3=<   0.000   0.000  11.853 >
      a=      11.853 b=     11.853 c=      11.853
      alpha=  90.000 beta=  90.000 gamma=  90.000
      omega=  1665.3

      reciprocal lattice vectors in a.u.

      b1=<   0.281   0.000  -0.000 >
      b2=<  -0.000   0.281  -0.000 >
      b3=<   0.000   0.000   0.281 >

      Atomic Mass 
      ----------- 

      Si+4              27.976930
      O-2               15.994910


      Symmetry information
      --------------------

 Group name                  Pm-3m
 Group number            221
 Group order              48
 No. of unique centers     4
 Setting number            1

      Symmetry unique atoms

     1   25   37   49


            XYZ format geometry
            -------------------
    72
 geometry
 Si+4                  0.00000000     4.38650262     2.18122034
 Si+4                  0.00000000     7.46666738     2.18122034
 Si+4                  0.00000000     4.38650262     9.67194966
 Si+4                  0.00000000     7.46666738     9.67194966
 Si+4                  2.18122034     0.00000000     4.38650262
 Si+4                  2.18122034     0.00000000     7.46666738
 Si+4                  9.67194966     0.00000000     4.38650262
 Si+4                  9.67194966     0.00000000     7.46666738
 Si+4                  4.38650262     2.18122034     0.00000000
 Si+4                  7.46666738     2.18122034     0.00000000
 Si+4                  4.38650262     9.67194966     0.00000000
 Si+4                  7.46666738     9.67194966     0.00000000
 Si+4                  4.38650262     0.00000000     9.67194966
 Si+4                  7.46666738     0.00000000     9.67194966
 Si+4                  4.38650262     0.00000000     2.18122034
 Si+4                  7.46666738     0.00000000     2.18122034
 Si+4                  0.00000000     2.18122034     7.46666738
 Si+4                  0.00000000     2.18122034     4.38650262
 Si+4                  0.00000000     9.67194966     7.46666738
 Si+4                  0.00000000     9.67194966     4.38650262
 Si+4                  2.18122034     4.38650262     0.00000000
 Si+4                  2.18122034     7.46666738     0.00000000
 Si+4                  9.67194966     4.38650262     0.00000000
 Si+4                  9.67194966     7.46666738     0.00000000
 O-2                   0.00000000     5.92658500     2.64859084
 O-2                   0.00000000     5.92658500     9.20457916
 O-2                   2.64859084     0.00000000     5.92658500
 O-2                   9.20457916     0.00000000     5.92658500
 O-2                   5.92658500     2.64859084     0.00000000
 O-2                   5.92658500     9.20457916     0.00000000
 O-2                   5.92658500     0.00000000     9.20457916
 O-2                   5.92658500     0.00000000     2.64859084
 O-2                   0.00000000     2.64859084     5.92658500
 O-2                   0.00000000     9.20457916     5.92658500
 O-2                   2.64859084     5.92658500     0.00000000
 O-2                   9.20457916     5.92658500     0.00000000
 O-2                   0.00000000     3.45270989     3.45270989
 O-2                   0.00000000     8.40046011     3.45270989
 O-2                   0.00000000     3.45270989     8.40046011
 O-2                   0.00000000     8.40046011     8.40046011
 O-2                   3.45270989     0.00000000     3.45270989
 O-2                   3.45270989     0.00000000     8.40046011
 O-2                   8.40046011     0.00000000     3.45270989
 O-2                   8.40046011     0.00000000     8.40046011
 O-2                   3.45270989     3.45270989     0.00000000
 O-2                   8.40046011     3.45270989     0.00000000
 O-2                   3.45270989     8.40046011     0.00000000
 O-2                   8.40046011     8.40046011     0.00000000
 O-2                   1.28701720     1.28701720     4.12596995
 O-2                  10.56615280    10.56615280     4.12596995
 O-2                  10.56615280     1.28701720     7.72720005
 O-2                   1.28701720    10.56615280     7.72720005
 O-2                   4.12596995     1.28701720     1.28701720
 O-2                   4.12596995    10.56615280    10.56615280
 O-2                   7.72720005    10.56615280     1.28701720
 O-2                   7.72720005     1.28701720    10.56615280
 O-2                   1.28701720     4.12596995     1.28701720
 O-2                  10.56615280     4.12596995    10.56615280
 O-2                   1.28701720     7.72720005    10.56615280
 O-2                  10.56615280     7.72720005     1.28701720
 O-2                   1.28701720     1.28701720     7.72720005
 O-2                  10.56615280    10.56615280     7.72720005
 O-2                   1.28701720    10.56615280     4.12596995
 O-2                  10.56615280     1.28701720     4.12596995
 O-2                   1.28701720     4.12596995    10.56615280
 O-2                  10.56615280     4.12596995     1.28701720
 O-2                  10.56615280     7.72720005    10.56615280
 O-2                   1.28701720     7.72720005     1.28701720
 O-2                   4.12596995     1.28701720    10.56615280
 O-2                   4.12596995    10.56615280     1.28701720
 O-2                   7.72720005     1.28701720     1.28701720
 O-2                   7.72720005    10.56615280    10.56615280

 ==============================================================================
                                internuclear distances
 ------------------------------------------------------------------------------
       center one      |      center two      | atomic units |  angstroms
 ------------------------------------------------------------------------------
   25 O-2              |   1 Si+4             |     3.04140  |     1.60944
   25 O-2              |   2 Si+4             |     3.04140  |     1.60944
   26 O-2              |   3 Si+4             |     3.04140  |     1.60944
   26 O-2              |   4 Si+4             |     3.04140  |     1.60944
   27 O-2              |   5 Si+4             |     3.04140  |     1.60944
   27 O-2              |   6 Si+4             |     3.04140  |     1.60944
   28 O-2              |   7 Si+4             |     3.04140  |     1.60944
   28 O-2              |   8 Si+4             |     3.04140  |     1.60944
   29 O-2              |   9 Si+4             |     3.04140  |     1.60944
   29 O-2              |  10 Si+4             |     3.04140  |     1.60944
   30 O-2              |  11 Si+4             |     3.04140  |     1.60944
   30 O-2              |  12 Si+4             |     3.04140  |     1.60944
   31 O-2              |  13 Si+4             |     3.04140  |     1.60944
   31 O-2              |  14 Si+4             |     3.04140  |     1.60944
   32 O-2              |  15 Si+4             |     3.04140  |     1.60944
   32 O-2              |  16 Si+4             |     3.04140  |     1.60944
   33 O-2              |  17 Si+4             |     3.04140  |     1.60944
   33 O-2              |  18 Si+4             |     3.04140  |     1.60944
   34 O-2              |  19 Si+4             |     3.04140  |     1.60944
   34 O-2              |  20 Si+4             |     3.04140  |     1.60944
   35 O-2              |  21 Si+4             |     3.04140  |     1.60944
   35 O-2              |  22 Si+4             |     3.04140  |     1.60944
   36 O-2              |  23 Si+4             |     3.04140  |     1.60944
   36 O-2              |  24 Si+4             |     3.04140  |     1.60944
   37 O-2              |   1 Si+4             |     2.98113  |     1.57755
   37 O-2              |  18 Si+4             |     2.98113  |     1.57755
   38 O-2              |   2 Si+4             |     2.98113  |     1.57755
   38 O-2              |  20 Si+4             |     2.98113  |     1.57755
   39 O-2              |   3 Si+4             |     2.98113  |     1.57755
   39 O-2              |  17 Si+4             |     2.98113  |     1.57755
   40 O-2              |   4 Si+4             |     2.98113  |     1.57755
   40 O-2              |  19 Si+4             |     2.98113  |     1.57755
   41 O-2              |   5 Si+4             |     2.98113  |     1.57755
   41 O-2              |  15 Si+4             |     2.98113  |     1.57755
   42 O-2              |   6 Si+4             |     2.98113  |     1.57755
   42 O-2              |  13 Si+4             |     2.98113  |     1.57755
   43 O-2              |   7 Si+4             |     2.98113  |     1.57755
   43 O-2              |  16 Si+4             |     2.98113  |     1.57755
   44 O-2              |   8 Si+4             |     2.98113  |     1.57755
   44 O-2              |  14 Si+4             |     2.98113  |     1.57755
   45 O-2              |   9 Si+4             |     2.98113  |     1.57755
   45 O-2              |  21 Si+4             |     2.98113  |     1.57755
   46 O-2              |  10 Si+4             |     2.98113  |     1.57755
   46 O-2              |  23 Si+4             |     2.98113  |     1.57755
   47 O-2              |  11 Si+4             |     2.98113  |     1.57755
   47 O-2              |  22 Si+4             |     2.98113  |     1.57755
   48 O-2              |  12 Si+4             |     2.98113  |     1.57755
   48 O-2              |  24 Si+4             |     2.98113  |     1.57755
   49 O-2              |   5 Si+4             |     3.00216  |     1.58868
   49 O-2              |  18 Si+4             |     3.00216  |     1.58868
   51 O-2              |   8 Si+4             |     3.00216  |     1.58868
   52 O-2              |  19 Si+4             |     3.00216  |     1.58868
   53 O-2              |   9 Si+4             |     3.00216  |     1.58868
   53 O-2              |  15 Si+4             |     3.00216  |     1.58868
   55 O-2              |  12 Si+4             |     3.00216  |     1.58868
   56 O-2              |  14 Si+4             |     3.00216  |     1.58868
   57 O-2              |   1 Si+4             |     3.00216  |     1.58868
   57 O-2              |  21 Si+4             |     3.00216  |     1.58868
   59 O-2              |   4 Si+4             |     3.00216  |     1.58868
   60 O-2              |  24 Si+4             |     3.00216  |     1.58868
   61 O-2              |   6 Si+4             |     3.00216  |     1.58868
   61 O-2              |  17 Si+4             |     3.00216  |     1.58868
   63 O-2              |  20 Si+4             |     3.00216  |     1.58868
   64 O-2              |   7 Si+4             |     3.00216  |     1.58868
   65 O-2              |   3 Si+4             |     3.00216  |     1.58868
   66 O-2              |  23 Si+4             |     3.00216  |     1.58868
   68 O-2              |   2 Si+4             |     3.00216  |     1.58868
   68 O-2              |  22 Si+4             |     3.00216  |     1.58868
   69 O-2              |  13 Si+4             |     3.00216  |     1.58868
   70 O-2              |  11 Si+4             |     3.00216  |     1.58868
   71 O-2              |  10 Si+4             |     3.00216  |     1.58868
   71 O-2              |  16 Si+4             |     3.00216  |     1.58868
 ------------------------------------------------------------------------------
                         number of included internuclear distances:         72
 ==============================================================================



 ==============================================================================
                                 internuclear angles
 ------------------------------------------------------------------------------
        center 1       |       center 2       |       center 3       |  degrees
 ------------------------------------------------------------------------------
   25 O-2              |   1 Si+4             |  37 O-2              |   109.41
   25 O-2              |   1 Si+4             |  57 O-2              |   108.69
   37 O-2              |   1 Si+4             |  57 O-2              |   110.89
   25 O-2              |   2 Si+4             |  38 O-2              |   109.41
   25 O-2              |   2 Si+4             |  68 O-2              |   108.69
   38 O-2              |   2 Si+4             |  68 O-2              |   110.89
   26 O-2              |   3 Si+4             |  39 O-2              |   109.41
   26 O-2              |   3 Si+4             |  65 O-2              |   108.69
   39 O-2              |   3 Si+4             |  65 O-2              |   110.89
   26 O-2              |   4 Si+4             |  40 O-2              |   109.41
   26 O-2              |   4 Si+4             |  59 O-2              |   108.69
   40 O-2              |   4 Si+4             |  59 O-2              |   110.89
   27 O-2              |   5 Si+4             |  41 O-2              |   109.41
   27 O-2              |   5 Si+4             |  49 O-2              |   108.69
   41 O-2              |   5 Si+4             |  49 O-2              |   110.89
   27 O-2              |   6 Si+4             |  42 O-2              |   109.41
   27 O-2              |   6 Si+4             |  61 O-2              |   108.69
   42 O-2              |   6 Si+4             |  61 O-2              |   110.89
   28 O-2              |   7 Si+4             |  43 O-2              |   109.41
   28 O-2              |   7 Si+4             |  64 O-2              |   108.69
   43 O-2              |   7 Si+4             |  64 O-2              |   110.89
   28 O-2              |   8 Si+4             |  44 O-2              |   109.41
   28 O-2              |   8 Si+4             |  51 O-2              |   108.69
   44 O-2              |   8 Si+4             |  51 O-2              |   110.89
   29 O-2              |   9 Si+4             |  45 O-2              |   109.41
   29 O-2              |   9 Si+4             |  53 O-2              |   108.69
   45 O-2              |   9 Si+4             |  53 O-2              |   110.89
   29 O-2              |  10 Si+4             |  46 O-2              |   109.41
   29 O-2              |  10 Si+4             |  71 O-2              |   108.69
   46 O-2              |  10 Si+4             |  71 O-2              |   110.89
   30 O-2              |  11 Si+4             |  47 O-2              |   109.41
   30 O-2              |  11 Si+4             |  70 O-2              |   108.69
   47 O-2              |  11 Si+4             |  70 O-2              |   110.89
   30 O-2              |  12 Si+4             |  48 O-2              |   109.41
   30 O-2              |  12 Si+4             |  55 O-2              |   108.69
   48 O-2              |  12 Si+4             |  55 O-2              |   110.89
   31 O-2              |  13 Si+4             |  42 O-2              |   109.41
   31 O-2              |  13 Si+4             |  69 O-2              |   108.69
   42 O-2              |  13 Si+4             |  69 O-2              |   110.89
   31 O-2              |  14 Si+4             |  44 O-2              |   109.41
   31 O-2              |  14 Si+4             |  56 O-2              |   108.69
   44 O-2              |  14 Si+4             |  56 O-2              |   110.89
   32 O-2              |  15 Si+4             |  41 O-2              |   109.41
   32 O-2              |  15 Si+4             |  53 O-2              |   108.69
   41 O-2              |  15 Si+4             |  53 O-2              |   110.89
   32 O-2              |  16 Si+4             |  43 O-2              |   109.41
   32 O-2              |  16 Si+4             |  71 O-2              |   108.69
   43 O-2              |  16 Si+4             |  71 O-2              |   110.89
   33 O-2              |  17 Si+4             |  39 O-2              |   109.41
   33 O-2              |  17 Si+4             |  61 O-2              |   108.69
   39 O-2              |  17 Si+4             |  61 O-2              |   110.89
   33 O-2              |  18 Si+4             |  37 O-2              |   109.41
   33 O-2              |  18 Si+4             |  49 O-2              |   108.69
   37 O-2              |  18 Si+4             |  49 O-2              |   110.89
   34 O-2              |  19 Si+4             |  40 O-2              |   109.41
   34 O-2              |  19 Si+4             |  52 O-2              |   108.69
   40 O-2              |  19 Si+4             |  52 O-2              |   110.89
   34 O-2              |  20 Si+4             |  38 O-2              |   109.41
   34 O-2              |  20 Si+4             |  63 O-2              |   108.69
   38 O-2              |  20 Si+4             |  63 O-2              |   110.89
   35 O-2              |  21 Si+4             |  45 O-2              |   109.41
   35 O-2              |  21 Si+4             |  57 O-2              |   108.69
   45 O-2              |  21 Si+4             |  57 O-2              |   110.89
   35 O-2              |  22 Si+4             |  47 O-2              |   109.41
   35 O-2              |  22 Si+4             |  68 O-2              |   108.69
   47 O-2              |  22 Si+4             |  68 O-2              |   110.89
   36 O-2              |  23 Si+4             |  46 O-2              |   109.41
   36 O-2              |  23 Si+4             |  66 O-2              |   108.69
   46 O-2              |  23 Si+4             |  66 O-2              |   110.89
   36 O-2              |  24 Si+4             |  48 O-2              |   109.41
   36 O-2              |  24 Si+4             |  60 O-2              |   108.69
   48 O-2              |  24 Si+4             |  60 O-2              |   110.89
    1 Si+4             |  25 O-2              |   2 Si+4             |   146.24
    3 Si+4             |  26 O-2              |   4 Si+4             |   146.24
    5 Si+4             |  27 O-2              |   6 Si+4             |   146.24
    7 Si+4             |  28 O-2              |   8 Si+4             |   146.24
    9 Si+4             |  29 O-2              |  10 Si+4             |   146.24
   11 Si+4             |  30 O-2              |  12 Si+4             |   146.24
   13 Si+4             |  31 O-2              |  14 Si+4             |   146.24
   15 Si+4             |  32 O-2              |  16 Si+4             |   146.24
   17 Si+4             |  33 O-2              |  18 Si+4             |   146.24
   19 Si+4             |  34 O-2              |  20 Si+4             |   146.24
   21 Si+4             |  35 O-2              |  22 Si+4             |   146.24
   23 Si+4             |  36 O-2              |  24 Si+4             |   146.24
    1 Si+4             |  37 O-2              |  18 Si+4             |   162.59
    2 Si+4             |  38 O-2              |  20 Si+4             |   162.59
    3 Si+4             |  39 O-2              |  17 Si+4             |   162.59
    4 Si+4             |  40 O-2              |  19 Si+4             |   162.59
    5 Si+4             |  41 O-2              |  15 Si+4             |   162.59
    6 Si+4             |  42 O-2              |  13 Si+4             |   162.59
    7 Si+4             |  43 O-2              |  16 Si+4             |   162.59
    8 Si+4             |  44 O-2              |  14 Si+4             |   162.59
    9 Si+4             |  45 O-2              |  21 Si+4             |   162.59
   10 Si+4             |  46 O-2              |  23 Si+4             |   162.59
   11 Si+4             |  47 O-2              |  22 Si+4             |   162.59
   12 Si+4             |  48 O-2              |  24 Si+4             |   162.59
    5 Si+4             |  49 O-2              |  18 Si+4             |   152.26
    9 Si+4             |  53 O-2              |  15 Si+4             |   152.26
    1 Si+4             |  57 O-2              |  21 Si+4             |   152.26
    6 Si+4             |  61 O-2              |  17 Si+4             |   152.26
    2 Si+4             |  68 O-2              |  22 Si+4             |   152.26
   10 Si+4             |  71 O-2              |  16 Si+4             |   152.26
 ------------------------------------------------------------------------------
                            number of included internuclear angles:        102
 ==============================================================================



  library name resolved from: compiled reference
  NWCHEM_NWPW_LIBRARY set to: </Users/bylaska/nwchem-releases/nwchem/src/nwpw/libraryps/>
  library name resolved from: compiled reference
  NWCHEM_NWPW_LIBRARY set to: </Users/bylaska/nwchem-releases/nwchem/src/nwpw/libraryps/>
          ****************************************************
          *                                                  *
          *               NWPW PSPW Calculation              *
          *                                                  *
          * [ (Grassmann/Stiefel manifold implementation)  ] *
          *                                                  *
          *      [ NorthWest Chemistry implementation ]      *
          *                                                  *
          *            version #5.10   06/12/02              *
          *                                                  *
          *    This code was developed by Eric J. Bylaska,   *
          *    and was based upon algorithms and code        *
          *    developed by the group of Prof. John H. Weare *
          *                                                  *
          ****************************************************
     >>>  JOB STARTED       AT Wed May 11 13:00:02 2022  <<<
          ================ input data ========================
  library name resolved from: compiled reference
  NWCHEM_NWPW_LIBRARY set to: </Users/bylaska/nwchem-releases/nwchem/src/nwpw/libraryps/>
 Generating 1d pseudopotential for Si  

 Generated formatted_filename: ./perm/Si.vpp
 - filtering pseudopotential -
  library name resolved from: compiled reference
  NWCHEM_NWPW_LIBRARY set to: </Users/bylaska/nwchem-releases/nwchem/src/nwpw/libraryps/>
 Generating 1d pseudopotential for O   

 Generated formatted_filename: ./perm/O.vpp
 - filtering pseudopotential -
 random planewave guess, initial psi:ocd7108304.movecs                                 
 -   spin, nalpha, nbeta:                    1                  192                    0

 input psi filename:./perm/ocd7108304.movecs

 Warning - K.S. orbitals are not orthonormal. Applying Gram-Schmidt orthonormalization.
         - exact norm=0.192000E+03 norm=0.121696E+03 corrected norm=0.192000E+03 (error=0.703038E+02)


 number of processors used:         4
 processor grid           :   4 x   1
 parallel mapping         :2d-hilbert
 parallel mapping         :  balanced
 number of threads        :         1
 parallel io              :       off

 options:
      boundary conditions  = periodic    (version3)
      electron spin        = restricted
      exchange-correlation = PBE96 (White and Bird) parameterization

 elements involved in the cluster:
      1: Si  valence charge:  4.0000  lmax=  2
             comment    : Hamann pseudopotential
             pseudpotential type            :   0
             highest angular component      :   2
             local potential used           :   2
             number of non-local projections:   4
             cutoff =   1.070   1.286   1.286

      2: O   valence charge:  6.0000  lmax=  2
             comment    : Parameterized (Chem.Phys.Lett., vol 322, page 447) Hamman psp
             pseudpotential type            :   0
             highest angular component      :   2
             local potential used           :   2
             number of non-local projections:   4
             cutoff =   0.700   0.700   0.700


 total charge:   0.000

 atomic composition:
     Si  :   24     O   :   48

 number of electrons: spin up=   192 ( 192 per task)  down=   192 ( 192 per task) (Fourier space)
 number of orbitals : spin up=   192 ( 192 per task)  down=   192 ( 192 per task) (Fourier space)

 supercell:
      cell_name:  cell_default                                      
      lattice:    a1=<  22.399   0.000   0.000 >
                  a2=<   0.000  22.399   0.000 >
                  a3=<   0.000   0.000  22.399 >
      reciprocal: b1=<   0.281   0.000  -0.000 >
                  b2=<  -0.000   0.281  -0.000 >
                  b3=<   0.000   0.000   0.281 >
      lattice:    a=      22.399 b=     22.399 c=      22.399
                  alpha=  90.000 beta=  90.000 gamma=  90.000
                  omega=     11238.3

      density cutoff= 25.000  fft= 54x 54x 54(    33642 waves     8410 per task)
      wavefnc cutoff= 12.500  fft= 54x 54x 54(    11852 waves     2963 per task)
      Ewald summation: cut radius=    7.13  and  1
                       Madelung Wigner-Seitz=    1.76011888 (alpha=    2.83729748 rs=13.89538164)

 technical parameters:
      time step=      5.80     fictitious mass=  400000.0
      tolerance=0.100E-06 (energy)   0.100E-06 (density)
      maximum iterations =         4 (    2 inner      2 outer )





== Energy Calculation ==


          ============ Grassmann lmbfgs iteration ============
     >>>  ITERATION STARTED AT Wed May 11 13:00:06 2022  <<<
    iter.           Energy         DeltaE       DeltaRho 
    ------------------------------------------------------
     -  15 steepest descent iterations performed
       2   -0.6411855723E+03   -0.12613E+03    0.35004E+02
     -   2 steepest descent iterations performed
       4   -0.7515635420E+03   -0.59113E+02    0.58609E+01
 *** arrived at the Maximum iteration.  terminated
     >>>  ITERATION ENDED   AT Wed May 11 13:00:54 2022  <<<


==  Summary Of Results  ==

 number of electrons: spin up=  192.00000  down=  192.00000 (real space)

 total     energy    :  -0.7515635420E+03 (   -0.10438E+02/ion)
 total orbital energy:  -0.1415037578E+03 (   -0.73700E+00/electron)
 hartree   energy    :   0.7710894646E+03 (    0.40161E+01/electron)
 exc-corr  energy    :  -0.1866683061E+03 (   -0.97223E+00/electron)
 ion-ion   energy    :   0.1053662214E+03 (    0.14634E+01/ion)

 kinetic (planewave) :   0.5570532173E+03 (    0.29013E+01/electron)
 V_local (planewave) :  -0.2041392949E+04 (   -0.10632E+02/electron)
 V_nl    (planewave) :   0.4298880935E+02 (    0.22390E+00/electron)
 V_Coul  (planewave) :   0.1542178929E+04 (    0.80322E+01/electron)
 V_xc.   (planewave) :  -0.2423317650E+03 (   -0.12621E+01/electron)
 Virial Coefficient  :  -0.1254021974E+01

 orbital energies:
     0.7913911E+00 (  21.535eV)
     0.6792090E+00 (  18.482eV)
     0.6219363E+00 (  16.924eV)
     0.6006287E+00 (  16.344eV)
     0.5205299E+00 (  14.164eV)
     0.5177016E+00 (  14.087eV)
     0.4798830E+00 (  13.058eV)
     0.4749492E+00 (  12.924eV)
     0.4662850E+00 (  12.688eV)
     0.4500286E+00 (  12.246eV)
     0.4426886E+00 (  12.046eV)
     0.4009278E+00 (  10.910eV)
     0.3780929E+00 (  10.289eV)
     0.3750066E+00 (  10.205eV)
     0.3596989E+00 (   9.788eV)
     0.3541928E+00 (   9.638eV)
     0.3475516E+00 (   9.457eV)
     0.3363618E+00 (   9.153eV)
     0.3208099E+00 (   8.730eV)
     0.3056041E+00 (   8.316eV)
     0.2965315E+00 (   8.069eV)
     0.2839577E+00 (   7.727eV)
     0.2786253E+00 (   7.582eV)
     0.2672680E+00 (   7.273eV)
     0.2503047E+00 (   6.811eV)
     0.2403381E+00 (   6.540eV)
     0.2378635E+00 (   6.473eV)
     0.2220634E+00 (   6.043eV)
     0.2110224E+00 (   5.742eV)
     0.2079877E+00 (   5.660eV)
     0.2046358E+00 (   5.568eV)
     0.1992083E+00 (   5.421eV)
     0.1846653E+00 (   5.025eV)
     0.1785943E+00 (   4.860eV)
     0.1607521E+00 (   4.374eV)
     0.1333268E+00 (   3.628eV)
     0.1148694E+00 (   3.126eV)
     0.1070596E+00 (   2.913eV)
     0.8625414E-01 (   2.347eV)
     0.6334898E-01 (   1.724eV)
     0.4692460E-01 (   1.277eV)
     0.4325547E-01 (   1.177eV)
     0.3214773E-01 (   0.875eV)
     0.2848500E-01 (   0.775eV)
     0.4832087E-02 (   0.131eV)
    -0.9028701E-02 (  -0.246eV)
    -0.1043468E-01 (  -0.284eV)
    -0.3003851E-01 (  -0.817eV)
    -0.4817851E-01 (  -1.311eV)
    -0.5447957E-01 (  -1.482eV)
    -0.6029958E-01 (  -1.641eV)
    -0.7408325E-01 (  -2.016eV)
    -0.7525049E-01 (  -2.048eV)
    -0.8049119E-01 (  -2.190eV)
    -0.1028668E+00 (  -2.799eV)
    -0.1111117E+00 (  -3.024eV)
    -0.1272461E+00 (  -3.463eV)
    -0.1344572E+00 (  -3.659eV)
    -0.1457733E+00 (  -3.967eV)
    -0.1597919E+00 (  -4.348eV)
    -0.1617183E+00 (  -4.401eV)
    -0.1678670E+00 (  -4.568eV)
    -0.1716141E+00 (  -4.670eV)
    -0.1823298E+00 (  -4.961eV)
    -0.1842338E+00 (  -5.013eV)
    -0.1925519E+00 (  -5.240eV)
    -0.1968715E+00 (  -5.357eV)
    -0.2057755E+00 (  -5.599eV)
    -0.2234134E+00 (  -6.079eV)
    -0.2243667E+00 (  -6.105eV)
    -0.2280913E+00 (  -6.207eV)
    -0.2365788E+00 (  -6.438eV)
    -0.2501111E+00 (  -6.806eV)
    -0.2514909E+00 (  -6.843eV)
    -0.2584684E+00 (  -7.033eV)
    -0.2652279E+00 (  -7.217eV)
    -0.2723725E+00 (  -7.412eV)
    -0.2776777E+00 (  -7.556eV)
    -0.2804462E+00 (  -7.631eV)
    -0.2838903E+00 (  -7.725eV)
    -0.2872098E+00 (  -7.815eV)
    -0.2907848E+00 (  -7.913eV)
    -0.2975157E+00 (  -8.096eV)
    -0.2995212E+00 (  -8.150eV)
    -0.3030799E+00 (  -8.247eV)
    -0.3135762E+00 (  -8.533eV)
    -0.3165919E+00 (  -8.615eV)
    -0.3205741E+00 (  -8.723eV)
    -0.3228727E+00 (  -8.786eV)
    -0.3274045E+00 (  -8.909eV)
    -0.3335623E+00 (  -9.077eV)
    -0.3363977E+00 (  -9.154eV)
    -0.3407737E+00 (  -9.273eV)
    -0.3444195E+00 (  -9.372eV)
    -0.3493038E+00 (  -9.505eV)
    -0.3527378E+00 (  -9.599eV)
    -0.3557139E+00 (  -9.680eV)
    -0.3593191E+00 (  -9.778eV)
    -0.3608660E+00 (  -9.820eV)
    -0.3639901E+00 (  -9.905eV)
    -0.3679596E+00 ( -10.013eV)
    -0.3689229E+00 ( -10.039eV)
    -0.3705935E+00 ( -10.084eV)
    -0.3747773E+00 ( -10.198eV)
    -0.3815855E+00 ( -10.384eV)
    -0.3855001E+00 ( -10.490eV)
    -0.3883670E+00 ( -10.568eV)
    -0.3930335E+00 ( -10.695eV)
    -0.3948619E+00 ( -10.745eV)
    -0.4019622E+00 ( -10.938eV)
    -0.4037729E+00 ( -10.987eV)
    -0.4095159E+00 ( -11.144eV)
    -0.4104327E+00 ( -11.169eV)
    -0.4169449E+00 ( -11.346eV)
    -0.4209417E+00 ( -11.454eV)
    -0.4223347E+00 ( -11.492eV)
    -0.4292735E+00 ( -11.681eV)
    -0.4365432E+00 ( -11.879eV)
    -0.4423557E+00 ( -12.037eV)
    -0.4508816E+00 ( -12.269eV)
    -0.4564122E+00 ( -12.420eV)
    -0.4585627E+00 ( -12.478eV)
    -0.4617438E+00 ( -12.565eV)
    -0.4654715E+00 ( -12.666eV)
    -0.4742052E+00 ( -12.904eV)
    -0.4795743E+00 ( -13.050eV)
    -0.4835172E+00 ( -13.157eV)
    -0.4906172E+00 ( -13.350eV)
    -0.4954521E+00 ( -13.482eV)
    -0.5073893E+00 ( -13.807eV)
    -0.5305176E+00 ( -14.436eV)
    -0.5316186E+00 ( -14.466eV)
    -0.5401355E+00 ( -14.698eV)
    -0.5418976E+00 ( -14.746eV)
    -0.5449035E+00 ( -14.828eV)
    -0.5526675E+00 ( -15.039eV)
    -0.5582407E+00 ( -15.191eV)
    -0.5620119E+00 ( -15.293eV)
    -0.5720080E+00 ( -15.565eV)
    -0.5771842E+00 ( -15.706eV)
    -0.5897518E+00 ( -16.048eV)
    -0.5972970E+00 ( -16.253eV)
    -0.6336141E+00 ( -17.242eV)
    -0.6379138E+00 ( -17.359eV)
    -0.9136254E+00 ( -24.861eV)
    -0.9193470E+00 ( -25.017eV)
    -0.9314691E+00 ( -25.347eV)
    -0.9442521E+00 ( -25.695eV)
    -0.9513991E+00 ( -25.889eV)
    -0.9639992E+00 ( -26.232eV)
    -0.9675508E+00 ( -26.329eV)
    -0.9755432E+00 ( -26.546eV)
    -0.9903584E+00 ( -26.949eV)
    -0.9936637E+00 ( -27.039eV)
    -0.1005173E+01 ( -27.352eV)
    -0.1010847E+01 ( -27.507eV)
    -0.1013103E+01 ( -27.568eV)
    -0.1017849E+01 ( -27.697eV)
    -0.1022555E+01 ( -27.825eV)
    -0.1024436E+01 ( -27.877eV)
    -0.1028056E+01 ( -27.975eV)
    -0.1030731E+01 ( -28.048eV)
    -0.1043349E+01 ( -28.391eV)
    -0.1044803E+01 ( -28.431eV)
    -0.1050061E+01 ( -28.574eV)
    -0.1055101E+01 ( -28.711eV)
    -0.1057408E+01 ( -28.774eV)
    -0.1064100E+01 ( -28.956eV)
    -0.1066284E+01 ( -29.015eV)
    -0.1067876E+01 ( -29.059eV)
    -0.1075838E+01 ( -29.275eV)
    -0.1076877E+01 ( -29.304eV)
    -0.1078735E+01 ( -29.354eV)
    -0.1087942E+01 ( -29.605eV)
    -0.1091115E+01 ( -29.691eV)
    -0.1100179E+01 ( -29.938eV)
    -0.1104704E+01 ( -30.061eV)
    -0.1107554E+01 ( -30.138eV)
    -0.1109813E+01 ( -30.200eV)
    -0.1112341E+01 ( -30.269eV)
    -0.1117247E+01 ( -30.402eV)
    -0.1123479E+01 ( -30.572eV)
    -0.1131610E+01 ( -30.793eV)
    -0.1135220E+01 ( -30.891eV)
    -0.1139595E+01 ( -31.010eV)
    -0.1149931E+01 ( -31.291eV)
    -0.1153304E+01 ( -31.383eV)
    -0.1157483E+01 ( -31.497eV)
    -0.1159112E+01 ( -31.541eV)
    -0.1170006E+01 ( -31.838eV)
    -0.1191338E+01 ( -32.418eV)
    -0.1205202E+01 ( -32.795eV)

 Total PSPW energy     :  -0.7515635420E+03


=== Spin Contamination ===

 <Sexact^2> =    0.0000000000000000     
 <S^2>      =    0.0000000000000000     



== Center of Charge ==

spin up     (    0.0029,   -0.0012,    0.0011 )
spin down   (    0.0029,   -0.0012,    0.0011 )
     total  (    0.0029,   -0.0012,    0.0011 )
ionic       (    0.7000,    0.7000,    0.7000 )


== Molecular Dipole wrt Center of Mass ==

mu   =  (  267.6934,  269.2498,  268.3575 ) au
|mu| =   464.9419 au,    1181.6963 Debye

 output psi filename:./perm/ocd7108304.movecs

 Writing Crystallographic Information File:./perm/nwcif_7108304.cif
   - cell not shifted (nwpw:cif_shift_cell .false.)


== Timing ==

cputime in seconds
  prologue    :   0.312601E+01
  main loop   :   0.491246E+02
  epilogue    :   0.107958E+01
  total       :   0.533302E+02
  cputime/step:   0.169395E+01       (      29 evalulations,       4 linesearches)


Time spent doing                        total          step       percent
  total time                 :   0.533338E+02  0.183910E+01       100.0 %
  i/o time                   :   0.246182E+01  0.848905E-01         4.6 %
  FFTs                       :   0.395094E+00  0.136239E-01         0.7 %
  dot products               :   0.571339E+01  0.197014E+00        10.7 %
  geodesic                   :   0.314187E+01  0.108341E+00         5.9 %
  ffm_dgemm                  :   0.310076E+01  0.106923E+00         5.8 %
  fmf_dgemm                  :   0.371991E+01  0.128273E+00         7.0 %
  mmm_dgemm                  :   0.667109E+00  0.230038E-01         1.3 %
  m_diagonalize              :   0.992300E-01  0.342172E-02         0.2 %
  exchange correlation       :   0.552254E+00  0.190432E-01         1.0 %
  local pseudopotentials     :   0.347700E-02  0.119897E-03         0.0 %
  non-local pseudopotentials :   0.249416E+02  0.860054E+00        46.8 %
  hartree potentials         :   0.330400E-02  0.113931E-03         0.0 %
  ion-ion interaction        :   0.963400E-02  0.332207E-03         0.0 %
  structure factors          :   0.857773E-01  0.295784E-02         0.2 %
  phase factors              :   0.104999E-03  0.362066E-05         0.0 %
  masking and packing        :   0.210393E+01  0.725493E-01         3.9 %
  queue fft                  :   0.132325E+02  0.456294E+00        24.8 %
  queue fft (serial)         :   0.612041E+01  0.211049E+00        11.5 %
  queue fft (message passing):   0.675484E+01  0.232925E+00        12.7 %
  non-local psp FFM          :   0.527068E+01  0.181748E+00         9.9 %
  non-local psp FMF          :   0.195403E+02  0.673805E+00        36.6 %
  non-local psp FFM A        :   0.603081E-01  0.207959E-02         0.1 %
  non-local psp FFM B        :   0.507071E+01  0.174852E+00         9.5 %

     >>>  JOB COMPLETED     AT Wed May 11 13:00:56 2022  <<<
          ****************************************************
          *                                                  *
          *               NWPW PSPW Calculation              *
          *                                                  *
          * [ (Grassmann/Stiefel manifold implementation)  ] *
          *                                                  *
          *      [ NorthWest Chemistry implementation ]      *
          *                                                  *
          *            version #5.10   06/12/02              *
          *                                                  *
          *    This code was developed by Eric J. Bylaska,   *
          *    and was based upon algorithms and code        *
          *    developed by the group of Prof. John H. Weare *
          *                                                  *
          ****************************************************
     >>>  JOB STARTED       AT Wed May 11 13:00:56 2022  <<<
          ================ input data ========================
 pseudopotential is not correctly formatted:Si.vpp                                            

 Generated formatted_filename: ./perm/Si.vpp
 - filtering pseudopotential -
 pseudopotential is not correctly formatted:O.vpp                                             

 Generated formatted_filename: ./perm/O.vpp
 - filtering pseudopotential -
 Error reading psi - bad grid
 nfft :                   54                   54                   54
 ngrid:                   72                   72                   72
 Error reading psi - bad grid
 nfft :                   54                   54                   54
 ngrid:                   72                   72                   72
 Error reading psi - bad grid

 Grid is being converted:
 ------------------------

 To turn off automatic grid conversion:

 set nwpw:psi_nogrid .false.

 old_filename: ocd7108304.movecs                                 
 new_filename: ocd7108304.movecs                                 
 converting  :  54x 54x 54 -->  72x 72x 72
converting .... psi:    1 spin: 1
converting .... psi:    2 spin: 1
converting .... psi:    3 spin: 1
converting .... psi:    4 spin: 1
converting .... psi:    5 spin: 1
converting .... psi:    6 spin: 1
converting .... psi:    7 spin: 1
converting .... psi:    8 spin: 1
converting .... psi:    9 spin: 1
converting .... psi:   10 spin: 1
converting .... psi:   11 spin: 1
converting .... psi:   12 spin: 1
converting .... psi:   13 spin: 1
converting .... psi:   14 spin: 1
converting .... psi:   15 spin: 1
converting .... psi:   16 spin: 1
converting .... psi:   17 spin: 1
converting .... psi:   18 spin: 1
converting .... psi:   19 spin: 1
converting .... psi:   20 spin: 1
converting .... psi:   21 spin: 1
converting .... psi:   22 spin: 1
converting .... psi:   23 spin: 1
converting .... psi:   24 spin: 1
converting .... psi:   25 spin: 1
converting .... psi:   26 spin: 1
converting .... psi:   27 spin: 1
converting .... psi:   28 spin: 1
converting .... psi:   29 spin: 1
converting .... psi:   30 spin: 1
converting .... psi:   31 spin: 1
converting .... psi:   32 spin: 1
converting .... psi:   33 spin: 1
converting .... psi:   34 spin: 1
converting .... psi:   35 spin: 1
converting .... psi:   36 spin: 1
converting .... psi:   37 spin: 1
converting .... psi:   38 spin: 1
converting .... psi:   39 spin: 1
converting .... psi:   40 spin: 1
converting .... psi:   41 spin: 1
converting .... psi:   42 spin: 1
converting .... psi:   43 spin: 1
converting .... psi:   44 spin: 1
converting .... psi:   45 spin: 1
converting .... psi:   46 spin: 1
converting .... psi:   47 spin: 1
converting .... psi:   48 spin: 1
converting .... psi:   49 spin: 1
converting .... psi:   50 spin: 1
converting .... psi:   51 spin: 1
converting .... psi:   52 spin: 1
converting .... psi:   53 spin: 1
converting .... psi:   54 spin: 1
converting .... psi:   55 spin: 1
converting .... psi:   56 spin: 1
converting .... psi:   57 spin: 1
converting .... psi:   58 spin: 1
converting .... psi:   59 spin: 1
converting .... psi:   60 spin: 1
converting .... psi:   61 spin: 1
converting .... psi:   62 spin: 1
converting .... psi:   63 spin: 1
converting .... psi:   64 spin: 1
converting .... psi:   65 spin: 1
converting .... psi:   66 spin: 1
converting .... psi:   67 spin: 1
converting .... psi:   68 spin: 1
converting .... psi:   69 spin: 1
converting .... psi:   70 spin: 1
converting .... psi:   71 spin: 1
converting .... psi:   72 spin: 1
converting .... psi:   73 spin: 1
converting .... psi:   74 spin: 1
converting .... psi:   75 spin: 1
converting .... psi:   76 spin: 1
converting .... psi:   77 spin: 1
converting .... psi:   78 spin: 1
converting .... psi:   79 spin: 1
converting .... psi:   80 spin: 1
converting .... psi:   81 spin: 1
converting .... psi:   82 spin: 1
converting .... psi:   83 spin: 1
converting .... psi:   84 spin: 1
converting .... psi:   85 spin: 1
converting .... psi:   86 spin: 1
converting .... psi:   87 spin: 1
converting .... psi:   88 spin: 1
converting .... psi:   89 spin: 1
converting .... psi:   90 spin: 1
converting .... psi:   91 spin: 1
converting .... psi:   92 spin: 1
converting .... psi:   93 spin: 1
converting .... psi:   94 spin: 1
converting .... psi:   95 spin: 1
converting .... psi:   96 spin: 1
converting .... psi:   97 spin: 1
converting .... psi:   98 spin: 1
converting .... psi:   99 spin: 1
converting .... psi:  100 spin: 1
converting .... psi:  101 spin: 1
converting .... psi:  102 spin: 1
converting .... psi:  103 spin: 1
converting .... psi:  104 spin: 1
converting .... psi:  105 spin: 1
converting .... psi:  106 spin: 1
converting .... psi:  107 spin: 1
converting .... psi:  108 spin: 1
converting .... psi:  109 spin: 1
converting .... psi:  110 spin: 1
converting .... psi:  111 spin: 1
converting .... psi:  112 spin: 1
converting .... psi:  113 spin: 1
converting .... psi:  114 spin: 1
converting .... psi:  115 spin: 1
converting .... psi:  116 spin: 1
converting .... psi:  117 spin: 1
converting .... psi:  118 spin: 1
converting .... psi:  119 spin: 1
converting .... psi:  120 spin: 1
converting .... psi:  121 spin: 1
converting .... psi:  122 spin: 1
converting .... psi:  123 spin: 1
converting .... psi:  124 spin: 1
converting .... psi:  125 spin: 1
converting .... psi:  126 spin: 1
converting .... psi:  127 spin: 1
converting .... psi:  128 spin: 1
converting .... psi:  129 spin: 1
converting .... psi:  130 spin: 1
converting .... psi:  131 spin: 1
converting .... psi:  132 spin: 1
converting .... psi:  133 spin: 1
converting .... psi:  134 spin: 1
converting .... psi:  135 spin: 1
converting .... psi:  136 spin: 1
converting .... psi:  137 spin: 1
converting .... psi:  138 spin: 1
converting .... psi:  139 spin: 1
converting .... psi:  140 spin: 1
converting .... psi:  141 spin: 1
converting .... psi:  142 spin: 1
converting .... psi:  143 spin: 1
converting .... psi:  144 spin: 1
converting .... psi:  145 spin: 1
converting .... psi:  146 spin: 1
converting .... psi:  147 spin: 1
converting .... psi:  148 spin: 1
converting .... psi:  149 spin: 1
converting .... psi:  150 spin: 1
converting .... psi:  151 spin: 1
converting .... psi:  152 spin: 1
converting .... psi:  153 spin: 1
converting .... psi:  154 spin: 1
converting .... psi:  155 spin: 1
converting .... psi:  156 spin: 1
converting .... psi:  157 spin: 1
converting .... psi:  158 spin: 1
converting .... psi:  159 spin: 1
converting .... psi:  160 spin: 1
converting .... psi:  161 spin: 1
converting .... psi:  162 spin: 1
converting .... psi:  163 spin: 1
converting .... psi:  164 spin: 1
converting .... psi:  165 spin: 1
converting .... psi:  166 spin: 1
converting .... psi:  167 spin: 1
converting .... psi:  168 spin: 1
converting .... psi:  169 spin: 1
converting .... psi:  170 spin: 1
converting .... psi:  171 spin: 1
converting .... psi:  172 spin: 1
converting .... psi:  173 spin: 1
converting .... psi:  174 spin: 1
converting .... psi:  175 spin: 1
converting .... psi:  176 spin: 1
converting .... psi:  177 spin: 1
converting .... psi:  178 spin: 1
converting .... psi:  179 spin: 1
converting .... psi:  180 spin: 1
converting .... psi:  181 spin: 1
converting .... psi:  182 spin: 1
converting .... psi:  183 spin: 1
converting .... psi:  184 spin: 1
converting .... psi:  185 spin: 1
converting .... psi:  186 spin: 1
converting .... psi:  187 spin: 1
converting .... psi:  188 spin: 1
converting .... psi:  189 spin: 1
converting .... psi:  190 spin: 1
converting .... psi:  191 spin: 1
converting .... psi:  192 spin: 1

 input psi filename:./perm/ocd7108304.movecs

 number of processors used:         4
 processor grid           :   4 x   1
 parallel mapping         :2d-hilbert
 parallel mapping         :  balanced
 number of threads        :         1
 parallel io              :       off

 options:
      boundary conditions  = periodic    (version3)
      electron spin        = restricted
      exchange-correlation = PBE96 (White and Bird) parameterization

 elements involved in the cluster:
      1: Si  valence charge:  4.0000  lmax=  2
             comment    : Hamann pseudopotential
             pseudpotential type            :   0
             highest angular component      :   2
             local potential used           :   2
             number of non-local projections:   4
             cutoff =   1.070   1.286   1.286

      2: O   valence charge:  6.0000  lmax=  2
             comment    : Parameterized (Chem.Phys.Lett., vol 322, page 447) Hamman psp
             pseudpotential type            :   0
             highest angular component      :   2
             local potential used           :   2
             number of non-local projections:   4
             cutoff =   0.700   0.700   0.700


 total charge:   0.000

 atomic composition:
     Si  :   24     O   :   48

 number of electrons: spin up=   192 ( 192 per task)  down=   192 ( 192 per task) (Fourier space)
 number of orbitals : spin up=   192 ( 192 per task)  down=   192 ( 192 per task) (Fourier space)

 supercell:
      cell_name:  cell_default                                      
      lattice:    a1=<  22.399   0.000   0.000 >
                  a2=<   0.000  22.399   0.000 >
                  a3=<   0.000   0.000  22.399 >
      reciprocal: b1=<   0.281   0.000  -0.000 >
                  b2=<  -0.000   0.281  -0.000 >
                  b3=<   0.000   0.000   0.281 >
      lattice:    a=      22.399 b=     22.399 c=      22.399
                  alpha=  90.000 beta=  90.000 gamma=  90.000
                  omega=     11238.3

      density cutoff= 50.000  fft= 72x 72x 72(    94968 waves    23742 per task)
      wavefnc cutoff= 25.000  fft= 72x 72x 72(    33642 waves     8410 per task)
      Ewald summation: cut radius=    7.13  and  1
                       Madelung Wigner-Seitz=    1.76011888 (alpha=    2.83729748 rs=13.89538164)

 technical parameters:
      time step=      5.80     fictitious mass=  400000.0
      tolerance=0.100E-06 (energy)   0.100E-06 (density)
      maximum iterations =         4 (    2 inner      2 outer )





== Energy Calculation ==


          ============ Grassmann lmbfgs iteration ============
     >>>  ITERATION STARTED AT Wed May 11 13:01:05 2022  <<<
    iter.           Energy         DeltaE       DeltaRho 
    ------------------------------------------------------
       2   -0.7989692640E+03   -0.12099E+02    0.31769E+01
     -   2 steepest descent iterations performed
       4   -0.8173437270E+03   -0.10706E+02    0.79032E+00
 *** arrived at the Maximum iteration.  terminated
     >>>  ITERATION ENDED   AT Wed May 11 13:02:23 2022  <<<


==  Summary Of Results  ==

 number of electrons: spin up=  192.00000  down=  192.00000 (real space)

 total     energy    :  -0.8173437270E+03 (   -0.11352E+02/ion)
 total orbital energy:  -0.1374940531E+03 (   -0.71611E+00/electron)
 hartree   energy    :   0.8436999766E+03 (    0.43943E+01/electron)
 exc-corr  energy    :  -0.1956772204E+03 (   -0.10192E+01/electron)
 ion-ion   energy    :   0.1053662214E+03 (    0.14634E+01/ion)

 kinetic (planewave) :   0.5869545155E+03 (    0.30571E+01/electron)
 V_local (planewave) :  -0.2160496007E+04 (   -0.11253E+02/electron)
 V_nl    (planewave) :   0.2808786498E+01 (    0.14629E-01/electron)
 V_Coul  (planewave) :   0.1687399953E+04 (    0.87885E+01/electron)
 V_xc.   (planewave) :  -0.2541613018E+03 (   -0.13238E+01/electron)
 Virial Coefficient  :  -0.1234249928E+01

 orbital energies:
     0.4276636E+00 (  11.637eV)
     0.4060432E+00 (  11.049eV)
     0.3887614E+00 (  10.579eV)
     0.3849490E+00 (  10.475eV)
     0.3632332E+00 (   9.884eV)
     0.3464361E+00 (   9.427eV)
     0.3344945E+00 (   9.102eV)
     0.3275593E+00 (   8.913eV)
     0.3114231E+00 (   8.474eV)
     0.2964338E+00 (   8.066eV)
     0.2819074E+00 (   7.671eV)
     0.2740804E+00 (   7.458eV)
     0.2661853E+00 (   7.243eV)
     0.2629892E+00 (   7.156eV)
     0.2337615E+00 (   6.361eV)
     0.2252627E+00 (   6.130eV)
     0.2166246E+00 (   5.895eV)
     0.2072024E+00 (   5.638eV)
     0.1942156E+00 (   5.285eV)
     0.1772772E+00 (   4.824eV)
     0.1731282E+00 (   4.711eV)
     0.1572124E+00 (   4.278eV)
     0.1445471E+00 (   3.933eV)
     0.1271223E+00 (   3.459eV)
     0.1135877E+00 (   3.091eV)
     0.9673202E-01 (   2.632eV)
     0.8729094E-01 (   2.375eV)
     0.8439927E-01 (   2.297eV)
     0.6731870E-01 (   1.832eV)
     0.5658957E-01 (   1.540eV)
     0.3544807E-01 (   0.965eV)
     0.1256024E-01 (   0.342eV)
    -0.1234981E-01 (  -0.336eV)
    -0.2324391E-01 (  -0.633eV)
    -0.5989263E-01 (  -1.630eV)
    -0.7138576E-01 (  -1.943eV)
    -0.7975145E-01 (  -2.170eV)
    -0.8794886E-01 (  -2.393eV)
    -0.9524175E-01 (  -2.592eV)
    -0.1024179E+00 (  -2.787eV)
    -0.1194142E+00 (  -3.249eV)
    -0.1345149E+00 (  -3.660eV)
    -0.1424745E+00 (  -3.877eV)
    -0.1450891E+00 (  -3.948eV)
    -0.1515579E+00 (  -4.124eV)
    -0.1535625E+00 (  -4.179eV)
    -0.1645784E+00 (  -4.478eV)
    -0.1748863E+00 (  -4.759eV)
    -0.1826024E+00 (  -4.969eV)
    -0.1851488E+00 (  -5.038eV)
    -0.1867707E+00 (  -5.082eV)
    -0.1932441E+00 (  -5.258eV)
    -0.1945148E+00 (  -5.293eV)
    -0.1974937E+00 (  -5.374eV)
    -0.2043117E+00 (  -5.560eV)
    -0.2075269E+00 (  -5.647eV)
    -0.2103348E+00 (  -5.724eV)
    -0.2117860E+00 (  -5.763eV)
    -0.2172752E+00 (  -5.912eV)
    -0.2186715E+00 (  -5.950eV)
    -0.2231248E+00 (  -6.072eV)
    -0.2244056E+00 (  -6.106eV)
    -0.2280311E+00 (  -6.205eV)
    -0.2303842E+00 (  -6.269eV)
    -0.2319534E+00 (  -6.312eV)
    -0.2325604E+00 (  -6.328eV)
    -0.2345124E+00 (  -6.381eV)
    -0.2364995E+00 (  -6.436eV)
    -0.2394814E+00 (  -6.517eV)
    -0.2431773E+00 (  -6.617eV)
    -0.2447244E+00 (  -6.659eV)
    -0.2479556E+00 (  -6.747eV)
    -0.2498094E+00 (  -6.798eV)
    -0.2527459E+00 (  -6.878eV)
    -0.2532057E+00 (  -6.890eV)
    -0.2544425E+00 (  -6.924eV)
    -0.2583931E+00 (  -7.031eV)
    -0.2602732E+00 (  -7.082eV)
    -0.2623753E+00 (  -7.140eV)
    -0.2640420E+00 (  -7.185eV)
    -0.2660682E+00 (  -7.240eV)
    -0.2681290E+00 (  -7.296eV)
    -0.2702997E+00 (  -7.355eV)
    -0.2731294E+00 (  -7.432eV)
    -0.2741284E+00 (  -7.459eV)
    -0.2797517E+00 (  -7.612eV)
    -0.2804984E+00 (  -7.633eV)
    -0.2838378E+00 (  -7.724eV)
    -0.2856115E+00 (  -7.772eV)
    -0.2869947E+00 (  -7.810eV)
    -0.2916204E+00 (  -7.935eV)
    -0.2935779E+00 (  -7.989eV)
    -0.2957043E+00 (  -8.047eV)
    -0.2979392E+00 (  -8.107eV)
    -0.3030989E+00 (  -8.248eV)
    -0.3065774E+00 (  -8.342eV)
    -0.3080928E+00 (  -8.384eV)
    -0.3112389E+00 (  -8.469eV)
    -0.3130031E+00 (  -8.517eV)
    -0.3145064E+00 (  -8.558eV)
    -0.3165892E+00 (  -8.615eV)
    -0.3264424E+00 (  -8.883eV)
    -0.3326455E+00 (  -9.052eV)
    -0.3359834E+00 (  -9.143eV)
    -0.3404376E+00 (  -9.264eV)
    -0.3457963E+00 (  -9.410eV)
    -0.3478993E+00 (  -9.467eV)
    -0.3502608E+00 (  -9.531eV)
    -0.3523202E+00 (  -9.587eV)
    -0.3592562E+00 (  -9.776eV)
    -0.3599878E+00 (  -9.796eV)
    -0.3645151E+00 (  -9.919eV)
    -0.3661206E+00 (  -9.963eV)
    -0.3685156E+00 ( -10.028eV)
    -0.3694916E+00 ( -10.054eV)
    -0.3781855E+00 ( -10.291eV)
    -0.3789656E+00 ( -10.312eV)
    -0.3809246E+00 ( -10.366eV)
    -0.3836700E+00 ( -10.440eV)
    -0.3884389E+00 ( -10.570eV)
    -0.3887628E+00 ( -10.579eV)
    -0.3917102E+00 ( -10.659eV)
    -0.3974854E+00 ( -10.816eV)
    -0.4018893E+00 ( -10.936eV)
    -0.4031235E+00 ( -10.970eV)
    -0.4069029E+00 ( -11.072eV)
    -0.4144381E+00 ( -11.278eV)
    -0.4253733E+00 ( -11.575eV)
    -0.4307858E+00 ( -11.722eV)
    -0.4369291E+00 ( -11.890eV)
    -0.4443289E+00 ( -12.091eV)
    -0.4503168E+00 ( -12.254eV)
    -0.4551388E+00 ( -12.385eV)
    -0.4588129E+00 ( -12.485eV)
    -0.4641114E+00 ( -12.629eV)
    -0.4667948E+00 ( -12.702eV)
    -0.4761107E+00 ( -12.956eV)
    -0.4805355E+00 ( -13.076eV)
    -0.4921583E+00 ( -13.392eV)
    -0.4982118E+00 ( -13.557eV)
    -0.4990235E+00 ( -13.579eV)
    -0.5108816E+00 ( -13.902eV)
    -0.5250431E+00 ( -14.287eV)
    -0.5253990E+00 ( -14.297eV)
    -0.8446763E+00 ( -22.985eV)
    -0.8468328E+00 ( -23.044eV)
    -0.8540597E+00 ( -23.240eV)
    -0.8581786E+00 ( -23.352eV)
    -0.8620090E+00 ( -23.457eV)
    -0.8647282E+00 ( -23.531eV)
    -0.8683028E+00 ( -23.628eV)
    -0.8694096E+00 ( -23.658eV)
    -0.8701794E+00 ( -23.679eV)
    -0.8718651E+00 ( -23.725eV)
    -0.8732647E+00 ( -23.763eV)
    -0.8750809E+00 ( -23.812eV)
    -0.8774468E+00 ( -23.877eV)
    -0.8783466E+00 ( -23.901eV)
    -0.8800599E+00 ( -23.948eV)
    -0.8816324E+00 ( -23.991eV)
    -0.8824614E+00 ( -24.013eV)
    -0.8843224E+00 ( -24.064eV)
    -0.8866246E+00 ( -24.126eV)
    -0.8884478E+00 ( -24.176eV)
    -0.8889209E+00 ( -24.189eV)
    -0.8902832E+00 ( -24.226eV)
    -0.8909162E+00 ( -24.243eV)
    -0.8927334E+00 ( -24.293eV)
    -0.8943601E+00 ( -24.337eV)
    -0.8954338E+00 ( -24.366eV)
    -0.8959218E+00 ( -24.379eV)
    -0.8986753E+00 ( -24.454eV)
    -0.8998078E+00 ( -24.485eV)
    -0.9026595E+00 ( -24.563eV)
    -0.9073322E+00 ( -24.690eV)
    -0.9085457E+00 ( -24.723eV)
    -0.9098679E+00 ( -24.759eV)
    -0.9107513E+00 ( -24.783eV)
    -0.9125375E+00 ( -24.832eV)
    -0.9168124E+00 ( -24.948eV)
    -0.9171727E+00 ( -24.958eV)
    -0.9221071E+00 ( -25.092eV)
    -0.9246333E+00 ( -25.161eV)
    -0.9286818E+00 ( -25.271eV)
    -0.9298517E+00 ( -25.303eV)
    -0.9310142E+00 ( -25.334eV)
    -0.9313901E+00 ( -25.345eV)
    -0.9340903E+00 ( -25.418eV)
    -0.9380811E+00 ( -25.527eV)
    -0.9402735E+00 ( -25.586eV)
    -0.9483147E+00 ( -25.805eV)
    -0.9557584E+00 ( -26.008eV)

 Total PSPW energy     :  -0.8173437270E+03


=== Spin Contamination ===

 <Sexact^2> =    0.0000000000000000     
 <S^2>      =    0.0000000000000000     



== Center of Charge ==

spin up     (    0.0010,   -0.0010,   -0.0018 )
spin down   (    0.0010,   -0.0010,   -0.0018 )
     total  (    0.0010,   -0.0010,   -0.0018 )
ionic       (    0.7000,    0.7000,    0.7000 )


== Molecular Dipole wrt Center of Mass ==

mu   =  (  268.4120,  269.1718,  269.4732 ) au
|mu| =   465.9552 au,    1184.2718 Debye

 output psi filename:./perm/ocd7108304.movecs

 Writing Crystallographic Information File:./perm/nwcif_7108304.cif
   - cell not shifted (nwpw:cif_shift_cell .false.)


== Timing ==

cputime in seconds
  prologue    :   0.898294E+01
  main loop   :   0.790047E+02
  epilogue    :   0.291918E+01
  total       :   0.909068E+02
  cputime/step:   0.564319E+01       (      14 evalulations,       4 linesearches)


Time spent doing                        total          step       percent
  total time                 :   0.909123E+02  0.649374E+01       100.0 %
  i/o time                   :   0.533384E+01  0.380989E+00         5.9 %
  FFTs                       :   0.781749E+00  0.558392E-01         0.9 %
  dot products               :   0.934902E+01  0.667787E+00        10.3 %
  geodesic                   :   0.101593E+02  0.725664E+00        11.2 %
  ffm_dgemm                  :   0.294896E+01  0.210640E+00         3.2 %
  fmf_dgemm                  :   0.998742E+01  0.713387E+00        11.0 %
  mmm_dgemm                  :   0.141093E+00  0.100781E-01         0.2 %
  m_diagonalize              :   0.110802E+00  0.791443E-02         0.1 %
  exchange correlation       :   0.103553E+01  0.739668E-01         1.1 %
  local pseudopotentials     :   0.152550E-01  0.108964E-02         0.0 %
  non-local pseudopotentials :   0.388180E+02  0.277271E+01        42.7 %
  hartree potentials         :   0.770900E-02  0.550643E-03         0.0 %
  ion-ion interaction        :   0.291830E-01  0.208450E-02         0.0 %
  structure factors          :   0.147228E+00  0.105163E-01         0.2 %
  phase factors              :   0.182999E-03  0.130714E-04         0.0 %
  masking and packing        :   0.342866E+01  0.244904E+00         3.8 %
  queue fft                  :   0.217319E+02  0.155228E+01        23.9 %
  queue fft (serial)         :   0.923867E+01  0.659905E+00        10.2 %
  queue fft (message passing):   0.119240E+02  0.851717E+00        13.1 %
  non-local psp FFM          :   0.909157E+01  0.649398E+00        10.0 %
  non-local psp FMF          :   0.295220E+02  0.210871E+01        32.5 %
  non-local psp FFM A        :   0.110461E+00  0.789009E-02         0.1 %
  non-local psp FFM B        :   0.884751E+01  0.631965E+00         9.7 %

     >>>  JOB COMPLETED     AT Wed May 11 13:02:27 2022  <<<
          ****************************************************
          *                                                  *
          *               NWPW PSPW Calculation              *
          *                                                  *
          * [ (Grassmann/Stiefel manifold implementation)  ] *
          *                                                  *
          *      [ NorthWest Chemistry implementation ]      *
          *                                                  *
          *            version #5.10   06/12/02              *
          *                                                  *
          *    This code was developed by Eric J. Bylaska,   *
          *    and was based upon algorithms and code        *
          *    developed by the group of Prof. John H. Weare *
          *                                                  *
          ****************************************************
     >>>  JOB STARTED       AT Wed May 11 13:02:27 2022  <<<
          ================ input data ========================
 pseudopotential is not correctly formatted:Si.vpp                                            

 Generated formatted_filename: ./perm/Si.vpp
 - filtering pseudopotential -
 pseudopotential is not correctly formatted:O.vpp                                             

 Generated formatted_filename: ./perm/O.vpp
 - filtering pseudopotential -
 Error reading psi - bad grid
 nfft :                   72                   72                   72
 ngrid:                   90                   90                   90
 Error reading psi - bad grid
 nfft :                   72                   72                   72
 ngrid:                   90                   90                   90
 Error reading psi - bad grid

 Grid is being converted:
 ------------------------

 To turn off automatic grid conversion:

 set nwpw:psi_nogrid .false.

 old_filename: ocd7108304.movecs                                 
 new_filename: ocd7108304.movecs                                 
 converting  :  72x 72x 72 -->  90x 90x 90
converting .... psi:    1 spin: 1
converting .... psi:    2 spin: 1
converting .... psi:    3 spin: 1
converting .... psi:    4 spin: 1
converting .... psi:    5 spin: 1
converting .... psi:    6 spin: 1
converting .... psi:    7 spin: 1
converting .... psi:    8 spin: 1
converting .... psi:    9 spin: 1
converting .... psi:   10 spin: 1
converting .... psi:   11 spin: 1
converting .... psi:   12 spin: 1
converting .... psi:   13 spin: 1
converting .... psi:   14 spin: 1
converting .... psi:   15 spin: 1
converting .... psi:   16 spin: 1
converting .... psi:   17 spin: 1
converting .... psi:   18 spin: 1
converting .... psi:   19 spin: 1
converting .... psi:   20 spin: 1
converting .... psi:   21 spin: 1
converting .... psi:   22 spin: 1
converting .... psi:   23 spin: 1
converting .... psi:   24 spin: 1
converting .... psi:   25 spin: 1
converting .... psi:   26 spin: 1
converting .... psi:   27 spin: 1
converting .... psi:   28 spin: 1
converting .... psi:   29 spin: 1
converting .... psi:   30 spin: 1
converting .... psi:   31 spin: 1
converting .... psi:   32 spin: 1
converting .... psi:   33 spin: 1
converting .... psi:   34 spin: 1
converting .... psi:   35 spin: 1
converting .... psi:   36 spin: 1
converting .... psi:   37 spin: 1
converting .... psi:   38 spin: 1
converting .... psi:   39 spin: 1
converting .... psi:   40 spin: 1
converting .... psi:   41 spin: 1
converting .... psi:   42 spin: 1
converting .... psi:   43 spin: 1
converting .... psi:   44 spin: 1
converting .... psi:   45 spin: 1
converting .... psi:   46 spin: 1
converting .... psi:   47 spin: 1
converting .... psi:   48 spin: 1
converting .... psi:   49 spin: 1
converting .... psi:   50 spin: 1
converting .... psi:   51 spin: 1
converting .... psi:   52 spin: 1
converting .... psi:   53 spin: 1
converting .... psi:   54 spin: 1
converting .... psi:   55 spin: 1
converting .... psi:   56 spin: 1
converting .... psi:   57 spin: 1
converting .... psi:   58 spin: 1
converting .... psi:   59 spin: 1
converting .... psi:   60 spin: 1
converting .... psi:   61 spin: 1
converting .... psi:   62 spin: 1
converting .... psi:   63 spin: 1
converting .... psi:   64 spin: 1
converting .... psi:   65 spin: 1
converting .... psi:   66 spin: 1
converting .... psi:   67 spin: 1
converting .... psi:   68 spin: 1
converting .... psi:   69 spin: 1
converting .... psi:   70 spin: 1
converting .... psi:   71 spin: 1
converting .... psi:   72 spin: 1
converting .... psi:   73 spin: 1
converting .... psi:   74 spin: 1
converting .... psi:   75 spin: 1
converting .... psi:   76 spin: 1
converting .... psi:   77 spin: 1
converting .... psi:   78 spin: 1
converting .... psi:   79 spin: 1
converting .... psi:   80 spin: 1
converting .... psi:   81 spin: 1
converting .... psi:   82 spin: 1
converting .... psi:   83 spin: 1
converting .... psi:   84 spin: 1
converting .... psi:   85 spin: 1
converting .... psi:   86 spin: 1
converting .... psi:   87 spin: 1
converting .... psi:   88 spin: 1
converting .... psi:   89 spin: 1
converting .... psi:   90 spin: 1
converting .... psi:   91 spin: 1
converting .... psi:   92 spin: 1
converting .... psi:   93 spin: 1
converting .... psi:   94 spin: 1
converting .... psi:   95 spin: 1
converting .... psi:   96 spin: 1
converting .... psi:   97 spin: 1
converting .... psi:   98 spin: 1
converting .... psi:   99 spin: 1
converting .... psi:  100 spin: 1
converting .... psi:  101 spin: 1
converting .... psi:  102 spin: 1
converting .... psi:  103 spin: 1
converting .... psi:  104 spin: 1
converting .... psi:  105 spin: 1
converting .... psi:  106 spin: 1
converting .... psi:  107 spin: 1
converting .... psi:  108 spin: 1
converting .... psi:  109 spin: 1
converting .... psi:  110 spin: 1
converting .... psi:  111 spin: 1
converting .... psi:  112 spin: 1
converting .... psi:  113 spin: 1
converting .... psi:  114 spin: 1
converting .... psi:  115 spin: 1
converting .... psi:  116 spin: 1
converting .... psi:  117 spin: 1
converting .... psi:  118 spin: 1
converting .... psi:  119 spin: 1
converting .... psi:  120 spin: 1
converting .... psi:  121 spin: 1
converting .... psi:  122 spin: 1
converting .... psi:  123 spin: 1
converting .... psi:  124 spin: 1
converting .... psi:  125 spin: 1
converting .... psi:  126 spin: 1
converting .... psi:  127 spin: 1
converting .... psi:  128 spin: 1
converting .... psi:  129 spin: 1
converting .... psi:  130 spin: 1
converting .... psi:  131 spin: 1
converting .... psi:  132 spin: 1
converting .... psi:  133 spin: 1
converting .... psi:  134 spin: 1
converting .... psi:  135 spin: 1
converting .... psi:  136 spin: 1
converting .... psi:  137 spin: 1
converting .... psi:  138 spin: 1
converting .... psi:  139 spin: 1
converting .... psi:  140 spin: 1
converting .... psi:  141 spin: 1
converting .... psi:  142 spin: 1
converting .... psi:  143 spin: 1
converting .... psi:  144 spin: 1
converting .... psi:  145 spin: 1
converting .... psi:  146 spin: 1
converting .... psi:  147 spin: 1
converting .... psi:  148 spin: 1
converting .... psi:  149 spin: 1
converting .... psi:  150 spin: 1
converting .... psi:  151 spin: 1
converting .... psi:  152 spin: 1
converting .... psi:  153 spin: 1
converting .... psi:  154 spin: 1
converting .... psi:  155 spin: 1
converting .... psi:  156 spin: 1
converting .... psi:  157 spin: 1
converting .... psi:  158 spin: 1
converting .... psi:  159 spin: 1
converting .... psi:  160 spin: 1
converting .... psi:  161 spin: 1
converting .... psi:  162 spin: 1
converting .... psi:  163 spin: 1
converting .... psi:  164 spin: 1
converting .... psi:  165 spin: 1
converting .... psi:  166 spin: 1
converting .... psi:  167 spin: 1
converting .... psi:  168 spin: 1
converting .... psi:  169 spin: 1
converting .... psi:  170 spin: 1
converting .... psi:  171 spin: 1
converting .... psi:  172 spin: 1
converting .... psi:  173 spin: 1
converting .... psi:  174 spin: 1
converting .... psi:  175 spin: 1
converting .... psi:  176 spin: 1
converting .... psi:  177 spin: 1
converting .... psi:  178 spin: 1
converting .... psi:  179 spin: 1
converting .... psi:  180 spin: 1
converting .... psi:  181 spin: 1
converting .... psi:  182 spin: 1
converting .... psi:  183 spin: 1
converting .... psi:  184 spin: 1
converting .... psi:  185 spin: 1
converting .... psi:  186 spin: 1
converting .... psi:  187 spin: 1
converting .... psi:  188 spin: 1
converting .... psi:  189 spin: 1
converting .... psi:  190 spin: 1
converting .... psi:  191 spin: 1
converting .... psi:  192 spin: 1

 input psi filename:./perm/ocd7108304.movecs

 number of processors used:         4
 processor grid           :   4 x   1
 parallel mapping         :2d-hilbert
 parallel mapping         :  balanced
 number of threads        :         1
 parallel io              :       off

 options:
      boundary conditions  = periodic    (version3)
      electron spin        = restricted
      exchange-correlation = PBE96 (White and Bird) parameterization

 elements involved in the cluster:
      1: Si  valence charge:  4.0000  lmax=  2
             comment    : Hamann pseudopotential
             pseudpotential type            :   0
             highest angular component      :   2
             local potential used           :   2
             number of non-local projections:   4
             cutoff =   1.070   1.286   1.286

      2: O   valence charge:  6.0000  lmax=  2
             comment    : Parameterized (Chem.Phys.Lett., vol 322, page 447) Hamman psp
             pseudpotential type            :   0
             highest angular component      :   2
             local potential used           :   2
             number of non-local projections:   4
             cutoff =   0.700   0.700   0.700


 total charge:   0.000

 atomic composition:
     Si  :   24     O   :   48

 number of electrons: spin up=   192 ( 192 per task)  down=   192 ( 192 per task) (Fourier space)
 number of orbitals : spin up=   192 ( 192 per task)  down=   192 ( 192 per task) (Fourier space)

 supercell:
      cell_name:  cell_default                                      
      lattice:    a1=<  22.399   0.000   0.000 >
                  a2=<   0.000  22.399   0.000 >
                  a3=<   0.000   0.000  22.399 >
      reciprocal: b1=<   0.281   0.000  -0.000 >
                  b2=<  -0.000   0.281  -0.000 >
                  b3=<   0.000   0.000   0.281 >
      lattice:    a=      22.399 b=     22.399 c=      22.399
                  alpha=  90.000 beta=  90.000 gamma=  90.000
                  omega=     11238.3

      density cutoff= 75.000  fft= 90x 90x 90(   174278 waves    43569 per task)
      wavefnc cutoff= 37.500  fft= 90x 90x 90(    61725 waves    15431 per task)
      Ewald summation: cut radius=    7.13  and  1
                       Madelung Wigner-Seitz=    1.76011888 (alpha=    2.83729748 rs=13.89538164)

 technical parameters:
      time step=      5.80     fictitious mass=  400000.0
      tolerance=0.100E-06 (energy)   0.100E-06 (density)
      maximum iterations =         4 (    2 inner      2 outer )





== Energy Calculation ==


          ============ Grassmann lmbfgs iteration ============
     >>>  ITERATION STARTED AT Wed May 11 13:02:44 2022  <<<
    iter.           Energy         DeltaE       DeltaRho 
    ------------------------------------------------------
       2   -0.8271083173E+03   -0.30595E+01    0.48304E+00
     -   2 steepest descent iterations performed
       4   -0.8346279679E+03   -0.49176E+01    0.24048E+00
 *** arrived at the Maximum iteration.  terminated
     >>>  ITERATION ENDED   AT Wed May 11 13:05:06 2022  <<<


==  Summary Of Results  ==

 number of electrons: spin up=  192.00000  down=  192.00000 (real space)

 total     energy    :  -0.8346279679E+03 (   -0.11592E+02/ion)
 total orbital energy:  -0.1330804227E+03 (   -0.69313E+00/electron)
 hartree   energy    :   0.8663013951E+03 (    0.45120E+01/electron)
 exc-corr  energy    :  -0.1985926524E+03 (   -0.10343E+01/electron)
 ion-ion   energy    :   0.1053662214E+03 (    0.14634E+01/ion)

 kinetic (planewave) :   0.5934492472E+03 (    0.30909E+01/electron)
 V_local (planewave) :  -0.2193391574E+04 (   -0.11424E+02/electron)
 V_nl    (planewave) :  -0.7760605140E+01 (   -0.40420E-01/electron)
 V_Coul  (planewave) :   0.1732602790E+04 (    0.90240E+01/electron)
 V_xc.   (planewave) :  -0.2579802809E+03 (   -0.13436E+01/electron)
 Virial Coefficient  :  -0.1224249038E+01

 orbital energies:
     0.3493564E+00 (   9.507eV)
     0.3327180E+00 (   9.054eV)
     0.3196356E+00 (   8.698eV)
     0.3152071E+00 (   8.577eV)
     0.3067600E+00 (   8.347eV)
     0.2939729E+00 (   7.999eV)
     0.2759611E+00 (   7.509eV)
     0.2727664E+00 (   7.422eV)
     0.2629324E+00 (   7.155eV)
     0.2553681E+00 (   6.949eV)
     0.2437791E+00 (   6.634eV)
     0.2007468E+00 (   5.463eV)
     0.1933258E+00 (   5.261eV)
     0.1803500E+00 (   4.908eV)
     0.1680479E+00 (   4.573eV)
     0.1498466E+00 (   4.078eV)
     0.1374346E+00 (   3.740eV)
     0.1147748E+00 (   3.123eV)
     0.9816504E-01 (   2.671eV)
     0.6658327E-01 (   1.812eV)
     0.5554141E-01 (   1.511eV)
     0.4352720E-01 (   1.184eV)
     0.2845322E-01 (   0.774eV)
     0.1683174E-01 (   0.458eV)
     0.4808397E-04 (   0.001eV)
    -0.6458249E-02 (  -0.176eV)
    -0.2653784E-01 (  -0.722eV)
    -0.2994059E-01 (  -0.815eV)
    -0.4499336E-01 (  -1.224eV)
    -0.5169697E-01 (  -1.407eV)
    -0.8033616E-01 (  -2.186eV)
    -0.8513950E-01 (  -2.317eV)
    -0.1052922E+00 (  -2.865eV)
    -0.1161304E+00 (  -3.160eV)
    -0.1269585E+00 (  -3.455eV)
    -0.1291952E+00 (  -3.516eV)
    -0.1350244E+00 (  -3.674eV)
    -0.1454475E+00 (  -3.958eV)
    -0.1489690E+00 (  -4.054eV)
    -0.1520381E+00 (  -4.137eV)
    -0.1566517E+00 (  -4.263eV)
    -0.1589812E+00 (  -4.326eV)
    -0.1625255E+00 (  -4.423eV)
    -0.1663007E+00 (  -4.525eV)
[...]
    -0.3512332E+00 (  -9.558eV)
    -0.3536139E+00 (  -9.622eV)
    -0.3619255E+00 (  -9.849eV)
    -0.3669734E+00 (  -9.986eV)
    -0.3680975E+00 ( -10.017eV)
    -0.3713399E+00 ( -10.105eV)
    -0.3768335E+00 ( -10.254eV)
    -0.3839680E+00 ( -10.448eV)
    -0.3901797E+00 ( -10.617eV)
    -0.3964198E+00 ( -10.787eV)
    -0.3991094E+00 ( -10.860eV)
    -0.4130931E+00 ( -11.241eV)
    -0.4169663E+00 ( -11.346eV)
    -0.4204057E+00 ( -11.440eV)
    -0.4215759E+00 ( -11.472eV)
    -0.4262122E+00 ( -11.598eV)
    -0.4310929E+00 ( -11.731eV)
    -0.4392787E+00 ( -11.953eV)
    -0.4542812E+00 ( -12.362eV)
    -0.4563841E+00 ( -12.419eV)
    -0.4632084E+00 ( -12.605eV)
    -0.4657055E+00 ( -12.673eV)
    -0.4713657E+00 ( -12.827eV)
    -0.4809688E+00 ( -13.088eV)
    -0.4929716E+00 ( -13.415eV)
    -0.7913275E+00 ( -21.533eV)
    -0.7946899E+00 ( -21.625eV)
    -0.7963322E+00 ( -21.669eV)
    -0.7968300E+00 ( -21.683eV)
    -0.8027631E+00 ( -21.844eV)
    -0.8043109E+00 ( -21.887eV)
    -0.8052349E+00 ( -21.912eV)
    -0.8054881E+00 ( -21.919eV)
    -0.8080566E+00 ( -21.989eV)
    -0.8116522E+00 ( -22.086eV)
    -0.8125918E+00 ( -22.112eV)
    -0.8137740E+00 ( -22.144eV)
    -0.8145449E+00 ( -22.165eV)
    -0.8155671E+00 ( -22.193eV)
    -0.8163546E+00 ( -22.214eV)
    -0.8173728E+00 ( -22.242eV)
    -0.8184886E+00 ( -22.272eV)
    -0.8210196E+00 ( -22.341eV)
    -0.8215224E+00 ( -22.355eV)
    -0.8233306E+00 ( -22.404eV)
    -0.8266973E+00 ( -22.496eV)
    -0.8271403E+00 ( -22.508eV)
    -0.8278792E+00 ( -22.528eV)
    -0.8292041E+00 ( -22.564eV)
    -0.8301392E+00 ( -22.589eV)
    -0.8327127E+00 ( -22.659eV)
    -0.8348366E+00 ( -22.717eV)
    -0.8357765E+00 ( -22.743eV)
    -0.8391716E+00 ( -22.835eV)
    -0.8415510E+00 ( -22.900eV)
    -0.8435406E+00 ( -22.954eV)
    -0.8454758E+00 ( -23.007eV)
    -0.8502468E+00 ( -23.137eV)
    -0.8540377E+00 ( -23.240eV)
    -0.8550036E+00 ( -23.266eV)
    -0.8561845E+00 ( -23.298eV)
    -0.8577479E+00 ( -23.341eV)
    -0.8590965E+00 ( -23.377eV)
    -0.8625074E+00 ( -23.470eV)
    -0.8644737E+00 ( -23.524eV)
    -0.8657070E+00 ( -23.557eV)
    -0.8698331E+00 ( -23.670eV)
    -0.8746111E+00 ( -23.800eV)
    -0.8768981E+00 ( -23.862eV)
    -0.8794267E+00 ( -23.931eV)
    -0.8815838E+00 ( -23.989eV)
    -0.8852455E+00 ( -24.089eV)
    -0.8982641E+00 ( -24.443eV)

 Total PSPW energy     :  -0.8346279679E+03


=== Spin Contamination ===

 <Sexact^2> =    0.0000000000000000     
 <S^2>      =    0.0000000000000000     



== Center of Charge ==

spin up     (    0.0005,   -0.0003,   -0.0023 )
spin down   (    0.0005,   -0.0003,   -0.0023 )
     total  (    0.0005,   -0.0003,   -0.0023 )
ionic       (    0.7000,    0.7000,    0.7000 )


== Molecular Dipole wrt Center of Mass ==

mu   =  (  268.6104,  268.8990,  269.6873 ) au
|mu| =   466.0359 au,    1184.4769 Debye

 output psi filename:./perm/ocd7108304.movecs

 Writing Crystallographic Information File:./perm/nwcif_7108304.cif
   - cell not shifted (nwpw:cif_shift_cell .false.)


== Timing ==

cputime in seconds
  prologue    :   0.174080E+02
  main loop   :   0.142823E+03
  epilogue    :   0.470350E+01
  total       :   0.164934E+03
  cputime/step:   0.102016E+02       (      14 evalulations,       4 linesearches)


Time spent doing                        total          step       percent
  total time                 :   0.164940E+03  0.117814E+02       100.0 %
  i/o time                   :   0.106425E+02  0.760180E+00         6.5 %
  FFTs                       :   0.137602E+01  0.982874E-01         0.8 %
  dot products               :   0.147777E+02  0.105555E+01         9.0 %
  geodesic                   :   0.174629E+02  0.124735E+01        10.6 %
  ffm_dgemm                  :   0.469706E+01  0.335504E+00         2.8 %
  fmf_dgemm                  :   0.172916E+02  0.123512E+01        10.5 %
  mmm_dgemm                  :   0.148447E+00  0.106034E-01         0.1 %
  m_diagonalize              :   0.102767E+00  0.734050E-02         0.1 %
  exchange correlation       :   0.180093E+01  0.128638E+00         1.1 %
  local pseudopotentials     :   0.684040E-01  0.488600E-02         0.0 %
  non-local pseudopotentials :   0.673526E+02  0.481090E+01        40.8 %
  hartree potentials         :   0.143010E-01  0.102150E-02         0.0 %
  ion-ion interaction        :   0.640900E-01  0.457786E-02         0.0 %
  structure factors          :   0.268857E+00  0.192041E-01         0.2 %
  phase factors              :   0.281000E-03  0.200714E-04         0.0 %
  masking and packing        :   0.629135E+01  0.449382E+00         3.8 %
  queue fft                  :   0.430031E+02  0.307165E+01        26.1 %
  queue fft (serial)         :   0.178960E+02  0.127829E+01        10.9 %
  queue fft (message passing):   0.240196E+02  0.171569E+01        14.6 %
  non-local psp FFM          :   0.143393E+02  0.102423E+01         8.7 %
  non-local psp FMF          :   0.526451E+02  0.376036E+01        31.9 %
  non-local psp FFM A        :   0.205370E+00  0.146693E-01         0.1 %
  non-local psp FFM B        :   0.139672E+02  0.997658E+00         8.5 %

     >>>  JOB COMPLETED     AT Wed May 11 13:05:12 2022  <<<
          ****************************************************
          *                                                  *
          *               NWPW PSPW Calculation              *
          *                                                  *
          * [ (Grassmann/Stiefel manifold implementation)  ] *
          *                                                  *
          *      [ NorthWest Chemistry implementation ]      *
          *                                                  *
          *            version #5.10   06/12/02              *
          *                                                  *
          *    This code was developed by Eric J. Bylaska,   *
          *    and was based upon algorithms and code        *
          *    developed by the group of Prof. John H. Weare *
          *                                                  *
          ****************************************************
     >>>  JOB STARTED       AT Wed May 11 13:05:12 2022  <<<
          ================ input data ========================
 pseudopotential is not correctly formatted:Si.vpp                                            

 Generated formatted_filename: ./perm/Si.vpp
 - filtering pseudopotential -
 pseudopotential is not correctly formatted:O.vpp                                             

 Generated formatted_filename: ./perm/O.vpp
 - filtering pseudopotential -
 Error reading psi - bad grid
 nfft :                   90                   90                   90
 ngrid:                  108                  108                  108
 Error reading psi - bad grid
 nfft :                   90                   90                   90
 ngrid:                  108                  108                  108
 Error reading psi - bad grid

 Grid is being converted:
 ------------------------

 To turn off automatic grid conversion:

 set nwpw:psi_nogrid .false.

 old_filename: ocd7108304.movecs                                 
 new_filename: ocd7108304.movecs                                 
 converting  :  90x 90x 90 --> 108x108x108
converting .... psi:    1 spin: 1
converting .... psi:    2 spin: 1
converting .... psi:    3 spin: 1
converting .... psi:    4 spin: 1
converting .... psi:    5 spin: 1
converting .... psi:    6 spin: 1
converting .... psi:    7 spin: 1
converting .... psi:    8 spin: 1
converting .... psi:    9 spin: 1
converting .... psi:   10 spin: 1
converting .... psi:   11 spin: 1
converting .... psi:   12 spin: 1
converting .... psi:   13 spin: 1
converting .... psi:   14 spin: 1
converting .... psi:   15 spin: 1
converting .... psi:   16 spin: 1
converting .... psi:   17 spin: 1
converting .... psi:   18 spin: 1
converting .... psi:   19 spin: 1
converting .... psi:   20 spin: 1
converting .... psi:   21 spin: 1
converting .... psi:   22 spin: 1
converting .... psi:   23 spin: 1
converting .... psi:   24 spin: 1
converting .... psi:   25 spin: 1
converting .... psi:   26 spin: 1
converting .... psi:   27 spin: 1
converting .... psi:   28 spin: 1
converting .... psi:   29 spin: 1
converting .... psi:   30 spin: 1
converting .... psi:   31 spin: 1
converting .... psi:   32 spin: 1
converting .... psi:   33 spin: 1
converting .... psi:   34 spin: 1
converting .... psi:   35 spin: 1
converting .... psi:   36 spin: 1
converting .... psi:   37 spin: 1
converting .... psi:   38 spin: 1
converting .... psi:   39 spin: 1
converting .... psi:   40 spin: 1
converting .... psi:   41 spin: 1
converting .... psi:   42 spin: 1
converting .... psi:   43 spin: 1
converting .... psi:   44 spin: 1
converting .... psi:   45 spin: 1
converting .... psi:   46 spin: 1
converting .... psi:   47 spin: 1
converting .... psi:   48 spin: 1
converting .... psi:   49 spin: 1
converting .... psi:   50 spin: 1
converting .... psi:   51 spin: 1
converting .... psi:   52 spin: 1
converting .... psi:   53 spin: 1
converting .... psi:   54 spin: 1
converting .... psi:   55 spin: 1
converting .... psi:   56 spin: 1
converting .... psi:   57 spin: 1
converting .... psi:   58 spin: 1
converting .... psi:   59 spin: 1
converting .... psi:   60 spin: 1
converting .... psi:   61 spin: 1
converting .... psi:   62 spin: 1
converting .... psi:   63 spin: 1
converting .... psi:   64 spin: 1
converting .... psi:   65 spin: 1
converting .... psi:   66 spin: 1
converting .... psi:   67 spin: 1
converting .... psi:   68 spin: 1
converting .... psi:   69 spin: 1
converting .... psi:   70 spin: 1
converting .... psi:   71 spin: 1
converting .... psi:   72 spin: 1
converting .... psi:   73 spin: 1
converting .... psi:   74 spin: 1
converting .... psi:   75 spin: 1
converting .... psi:   76 spin: 1
converting .... psi:   77 spin: 1
converting .... psi:   78 spin: 1
converting .... psi:   79 spin: 1
converting .... psi:   80 spin: 1
converting .... psi:   81 spin: 1
converting .... psi:   82 spin: 1
converting .... psi:   83 spin: 1
converting .... psi:   84 spin: 1
converting .... psi:   85 spin: 1
converting .... psi:   86 spin: 1
converting .... psi:   87 spin: 1
converting .... psi:   88 spin: 1
converting .... psi:   89 spin: 1
converting .... psi:   90 spin: 1
converting .... psi:   91 spin: 1
converting .... psi:   92 spin: 1
converting .... psi:   93 spin: 1
converting .... psi:   94 spin: 1
converting .... psi:   95 spin: 1
converting .... psi:   96 spin: 1
converting .... psi:   97 spin: 1
converting .... psi:   98 spin: 1
converting .... psi:   99 spin: 1
converting .... psi:  100 spin: 1
converting .... psi:  101 spin: 1
converting .... psi:  102 spin: 1
converting .... psi:  103 spin: 1
converting .... psi:  104 spin: 1
converting .... psi:  105 spin: 1
converting .... psi:  106 spin: 1
converting .... psi:  107 spin: 1
converting .... psi:  108 spin: 1
converting .... psi:  109 spin: 1
converting .... psi:  110 spin: 1
converting .... psi:  111 spin: 1
converting .... psi:  112 spin: 1
converting .... psi:  113 spin: 1
converting .... psi:  114 spin: 1
converting .... psi:  115 spin: 1
converting .... psi:  116 spin: 1
converting .... psi:  117 spin: 1
converting .... psi:  118 spin: 1
converting .... psi:  119 spin: 1
converting .... psi:  120 spin: 1
converting .... psi:  121 spin: 1
converting .... psi:  122 spin: 1
converting .... psi:  123 spin: 1
converting .... psi:  124 spin: 1
converting .... psi:  125 spin: 1
converting .... psi:  126 spin: 1
converting .... psi:  127 spin: 1
converting .... psi:  128 spin: 1
converting .... psi:  129 spin: 1
converting .... psi:  130 spin: 1
converting .... psi:  131 spin: 1
converting .... psi:  132 spin: 1
converting .... psi:  133 spin: 1
converting .... psi:  134 spin: 1
converting .... psi:  135 spin: 1
converting .... psi:  136 spin: 1
converting .... psi:  137 spin: 1
converting .... psi:  138 spin: 1
converting .... psi:  139 spin: 1
converting .... psi:  140 spin: 1
converting .... psi:  141 spin: 1
converting .... psi:  142 spin: 1
converting .... psi:  143 spin: 1
converting .... psi:  144 spin: 1
converting .... psi:  145 spin: 1
converting .... psi:  146 spin: 1
converting .... psi:  147 spin: 1
converting .... psi:  148 spin: 1
converting .... psi:  149 spin: 1
converting .... psi:  150 spin: 1
converting .... psi:  151 spin: 1
converting .... psi:  152 spin: 1
converting .... psi:  153 spin: 1
converting .... psi:  154 spin: 1
converting .... psi:  155 spin: 1
converting .... psi:  156 spin: 1
converting .... psi:  157 spin: 1
converting .... psi:  158 spin: 1
converting .... psi:  159 spin: 1
converting .... psi:  160 spin: 1
converting .... psi:  161 spin: 1
converting .... psi:  162 spin: 1
converting .... psi:  163 spin: 1
converting .... psi:  164 spin: 1
converting .... psi:  165 spin: 1
converting .... psi:  166 spin: 1
converting .... psi:  167 spin: 1
converting .... psi:  168 spin: 1
converting .... psi:  169 spin: 1
converting .... psi:  170 spin: 1
converting .... psi:  171 spin: 1
converting .... psi:  172 spin: 1
converting .... psi:  173 spin: 1
converting .... psi:  174 spin: 1
converting .... psi:  175 spin: 1
converting .... psi:  176 spin: 1
converting .... psi:  177 spin: 1
converting .... psi:  178 spin: 1
converting .... psi:  179 spin: 1
converting .... psi:  180 spin: 1
converting .... psi:  181 spin: 1
converting .... psi:  182 spin: 1
converting .... psi:  183 spin: 1
converting .... psi:  184 spin: 1
converting .... psi:  185 spin: 1
converting .... psi:  186 spin: 1
converting .... psi:  187 spin: 1
converting .... psi:  188 spin: 1
converting .... psi:  189 spin: 1
converting .... psi:  190 spin: 1
converting .... psi:  191 spin: 1
converting .... psi:  192 spin: 1

 input psi filename:./perm/ocd7108304.movecs

 number of processors used:         4
 processor grid           :   4 x   1
 parallel mapping         :2d-hilbert
 parallel mapping         :  balanced
 number of threads        :         1
 parallel io              :       off

 options:
      boundary conditions  = periodic    (version3)
      electron spin        = restricted
      exchange-correlation = PBE96 (White and Bird) parameterization

 elements involved in the cluster:
      1: Si  valence charge:  4.0000  lmax=  2
             comment    : Hamann pseudopotential
             pseudpotential type            :   0
             highest angular component      :   2
             local potential used           :   2
             number of non-local projections:   4
             cutoff =   1.070   1.286   1.286

      2: O   valence charge:  6.0000  lmax=  2
             comment    : Parameterized (Chem.Phys.Lett., vol 322, page 447) Hamman psp
             pseudpotential type            :   0
             highest angular component      :   2
             local potential used           :   2
             number of non-local projections:   4
             cutoff =   0.700   0.700   0.700


 total charge:   0.000

 atomic composition:
     Si  :   24     O   :   48

 number of electrons: spin up=   192 ( 192 per task)  down=   192 ( 192 per task) (Fourier space)
 number of orbitals : spin up=   192 ( 192 per task)  down=   192 ( 192 per task) (Fourier space)

 supercell:
      cell_name:  cell_default                                      
      lattice:    a1=<  22.399   0.000   0.000 >
                  a2=<   0.000  22.399   0.000 >
                  a3=<   0.000   0.000  22.399 >
      reciprocal: b1=<   0.281   0.000  -0.000 >
                  b2=<  -0.000   0.281  -0.000 >
                  b3=<   0.000   0.000   0.281 >
      lattice:    a=      22.399 b=     22.399 c=      22.399
                  alpha=  90.000 beta=  90.000 gamma=  90.000
                  omega=     11238.3

      density cutoff=100.000  fft=108x108x108(   268581 waves    67145 per task)
      wavefnc cutoff= 50.000  fft=108x108x108(    94968 waves    23742 per task)
      Ewald summation: cut radius=    7.13  and  1
                       Madelung Wigner-Seitz=    1.76011888 (alpha=    2.83729748 rs=13.89538164)

 technical parameters:
      time step=      5.80     fictitious mass=  400000.0
      tolerance=0.100E-06 (energy)   0.100E-06 (density)
      maximum iterations =         4 (    2 inner      2 outer )





== Energy Calculation ==


          ============ Grassmann lmbfgs iteration ============
     >>>  ITERATION STARTED AT Wed May 11 13:05:38 2022  <<<
    iter.           Energy         DeltaE       DeltaRho 
    ------------------------------------------------------
 ------------------------------------------------------------------------
 pspw_Grsm_list_start:get heap                   0
 ------------------------------------------------------------------------
 ------------------------------------------------------------------------
  current input line : 
    40: task pspw energy
 ------------------------------------------------------------------------
 ------------------------------------------------------------------------
 ------------------------------------------------------------------------
 For more information see the NWChem manual at https://nwchemgit.github.io


 For further details see manual section:                                                                                                                                                                                                                                                                
 pspw_Grsm_list_start:get heap                   0
 ------------------------------------------------------------------------
 ------------------------------------------------------------------------
  current input line : 
 pspw_Grsm_list_start:get heap                   0
 ------------------------------------------------------------------------
 ------------------------------------------------------------------------
  current input line : 
 pspw_Grsm_list_start:get heap                   0
 ------------------------------------------------------------------------
 ------------------------------------------------------------------------
  current input line : 
     0: 
 ------------------------------------------------------------------------
 ------------------------------------------------------------------------
 ------------------------------------------------------------------------
 For more information see the NWChem manual at https://nwchemgit.github.io


 For further details see manual section:                                                                                                                                                                                                                                                                
     0: 
 ------------------------------------------------------------------------
 ------------------------------------------------------------------------
 ------------------------------------------------------------------------
 For more information see the NWChem manual at https://nwchemgit.github.io


 For further details see manual section:                                                                                                                                                                                                                                                                
     0: 
 ------------------------------------------------------------------------
 ------------------------------------------------------------------------
 ------------------------------------------------------------------------
 For more information see the NWChem manual at https://nwchemgit.github.io


 For further details see manual section:                                                                                                                                                                                                                                                                
