pwdft (NWChemEx) - Version 1.0

============================== echo of input deck ==============================
Title "Benzene test"

memory 1900 mb
start benzene1-pspw
echo



geometry angstroms noautosym noautoz
C         0.114944     1.370921     0.000000
C        -1.129702     0.785167    -0.000000
C        -1.244418    -0.585738    -0.000000
C        -0.114943    -1.370920    -0.000000
C         1.129704    -0.785166     0.000000
C         1.244420     0.585738     0.000000
H        -2.010852     1.397894    -0.000000
H        -2.215721    -1.042422    -0.000000
H        -0.205163    -2.440365    -0.000000
H         2.010852    -1.397896     0.000000
H         2.215723     1.042422     0.000000
H         0.205157     2.440366     0.000000
end

nwpw
   pseudopotentials
   H library pspw_default
   C library pspw_default
   end

   simulation_cell
     SC 26.0
   end
   2d-hcurve
   
   xc pbe
   cutoff 30.0
end

task pspw energy

================================================================================

              NorthwestEx Computational Chemistry Package 1.0.0
           --------------------------------------------------------

                  Pacific Northwest National Laboratory
                           Richland, WA 99354

                         Copyright (c) 2020
                  Pacific Northwest National Laboratory
                       Battelle Memorial Institute

        NWChemEx is an open-source computational chemistry package
                   distributed under the terms of the
                 Educational Community License (ECL) 2.0
        A copy of the license is included with this distribution
                         in the LICENSE.TXT file

                             ACKNOWLEDGMENT
                             --------------

       This software and its documentation were developed at the
       Pacific Northwest National Laboratory, a multiprogram
       national laboratory, operated for the U.S. Department of Energy
       by Battelle under Contract Number DE-AC05-76RL01830. Support
       for this work was provided by the Department of Energy 
       Office of Advanced Scientific Computing and the Office of Basic
       Energy Sciences.

       Job information
       ---------------
       program               = pwdft (NWChemEx)
       build configured      = Wed Dec 14 11:12:17 2022
       source                = /Users/bylaska/Codes/PWDFT/Nwpw
       version               = 1.0
       default psp libraries = /Users/bylaska/Codes/PWDFT/Nwpw/libraryps

       date                  = Wed Dec 14 14:06:55 2022
       nproc                 = 4
       input                 = benzene1.nw



First rtdbstr={"current_task":"task pspw energy","dbname":"benzene1-pspw","driver":null,"foundtask":true,"geometries":{"geometry":{"autosym":0,"autoz":0,"center":1,"charges":[6.0,6.0,6.0,6.0,6.0,6.0,1.0,1.0,1.0,1.0,1.0,1.0],"conv":1.88972598858,"coords":[0.21721130891417914,2.590664485299585,0.0,-2.1348285838679635,1.4837499285848954,-0.0,-2.3516103903739065,-1.1068848777893692,-0.0,-0.2172121294225113,-2.5906637089545907,-0.0,2.13482965308562,-1.4837491522399016,0.0,2.3516114595915636,1.1068837644083747,0.0,-3.79996063870523,2.6416360643895533,-0.0,-4.187106912259626,-1.969892501158038,-0.0,-0.38770320811219894,-4.611621718811529,-0.0,3.7999579284709095,-2.641640957222525,0.0,4.187107981477283,1.9698913877770434,0.0,0.3876891595219467,4.611622495156523,0.0],"masses":[12.0,12.0,12.0,12.0,12.0,12.0,1.008,1.008,1.008,1.008,1.008,1.008],"nion":12,"symbols":["C","C","C","C","C","C","H","H","H","H","H","H"],"unita":[1.0,0.0,0.0,0.0,1.0,0.0,0.0,0.0,1.0],"velocities":[0.0,0.0,0.0,0.0,0.0,0.0,0.0,0.0,0.0,0.0,0.0,0.0,0.0,0.0,0.0,0.0,0.0,0.0,0.0,0.0,0.0,0.0,0.0,0.0,0.0,0.0,0.0,0.0,0.0,0.0,0.0,0.0,0.0,0.0,0.0,0.0]}},"nwinput_cur":39,"nwinput_lines":["Title \"Benzene test\"","","memory 1900 mb","start benzene1-pspw","echo","","","","geometry angstroms noautosym noautoz","C         0.114944     1.370921     0.000000","C        -1.129702     0.785167    -0.000000","C        -1.244418    -0.585738    -0.000000","C        -0.114943    -1.370920    -0.000000","C         1.129704    -0.785166     0.000000","C         1.244420     0.585738     0.000000","H        -2.010852     1.397894    -0.000000","H        -2.215721    -1.042422    -0.000000","H        -0.205163    -2.440365    -0.000000","H         2.010852    -1.397896     0.000000","H         2.215723     1.042422     0.000000","H         0.205157     2.440366     0.000000","end","","nwpw","   pseudopotentials","   H library pspw_default","   C library pspw_default","   end","","   simulation_cell","     SC 26.0","   end","   2d-hcurve","   ","   xc pbe","   cutoff 30.0","end","","task pspw energy","",""],"nwinput_nlines":41,"nwpw":{"cutoff":[30.0,60.0],"mapping":3,"pseudopotentials":{"C":"pspw_default","H":"pspw_default"},"simulation_cell":{"unita":[26.0,0.0,0.0,0.0,26.0,0.0,0.0,0.0,26.0]},"xc":"pbe"},"permanent_dir":".","psp_library_dir":"","scratch_dir":".","title":"Benzene test"}
First task=1


Running staged energy optimization - lowlevel_rtdbstr = {"current_task":"energy","dbname":"benzene1-pspw","driver":null,"foundtask":true,"geometries":{"geometry":{"autosym":0,"autoz":0,"center":1,"charges":[6.0,6.0,6.0,6.0,6.0,6.0,1.0,1.0,1.0,1.0,1.0,1.0],"conv":1.88972598858,"coords":[0.21721130891417914,2.590664485299585,0.0,-2.1348285838679635,1.4837499285848954,-0.0,-2.3516103903739065,-1.1068848777893692,-0.0,-0.2172121294225113,-2.5906637089545907,-0.0,2.13482965308562,-1.4837491522399016,0.0,2.3516114595915636,1.1068837644083747,0.0,-3.79996063870523,2.6416360643895533,-0.0,-4.187106912259626,-1.969892501158038,-0.0,-0.38770320811219894,-4.611621718811529,-0.0,3.7999579284709095,-2.641640957222525,0.0,4.187107981477283,1.9698913877770434,0.0,0.3876891595219467,4.611622495156523,0.0],"masses":[12.0,12.0,12.0,12.0,12.0,12.0,1.008,1.008,1.008,1.008,1.008,1.008],"nion":12,"symbols":["C","C","C","C","C","C","H","H","H","H","H","H"],"unita":[1.0,0.0,0.0,0.0,1.0,0.0,0.0,0.0,1.0],"velocities":[0.0,0.0,0.0,0.0,0.0,0.0,0.0,0.0,0.0,0.0,0.0,0.0,0.0,0.0,0.0,0.0,0.0,0.0,0.0,0.0,0.0,0.0,0.0,0.0,0.0,0.0,0.0,0.0,0.0,0.0,0.0,0.0,0.0,0.0,0.0,0.0]}},"nwinput_cur":39,"nwinput_lines":["Title \"Benzene test\"","","memory 1900 mb","start benzene1-pspw","echo","","","","geometry angstroms noautosym noautoz","C         0.114944     1.370921     0.000000","C        -1.129702     0.785167    -0.000000","C        -1.244418    -0.585738    -0.000000","C        -0.114943    -1.370920    -0.000000","C         1.129704    -0.785166     0.000000","C         1.244420     0.585738     0.000000","H        -2.010852     1.397894    -0.000000","H        -2.215721    -1.042422    -0.000000","H        -0.205163    -2.440365    -0.000000","H         2.010852    -1.397896     0.000000","H         2.215723     1.042422     0.000000","H         0.205157     2.440366     0.000000","end","","nwpw","   pseudopotentials","   H library pspw_default","   C library pspw_default","   end","","   simulation_cell","     SC 26.0","   end","   2d-hcurve","   ","   xc pbe","   cutoff 30.0","end","","task pspw energy","",""],"nwinput_nlines":41,"nwpw":{"cutoff":[10.0,20.0],"mapping":3,"pseudopotentials":{"C":"pspw_default","H":"pspw_default"},"simulation_cell":{"unita":[26.0,0.0,0.0,0.0,26.0,0.0,0.0,0.0,26.0]},"xc":"pbe"},"permanent_dir":".","psp_library_dir":"","scratch_dir":".","title":"Benzene test"}

          *****************************************************
          *                                                   *
          *               PWDFT PSPW Calculation              *
          *                                                   *
          *  [ (Grassmann/Stiefel manifold implementation) ]  *
          *  [              C++ implementation             ]  *
          *                                                   *
          *              version #7.00   02/27/21             *
          *                                                   *
          *    This code was developed by Eric J. Bylaska,    *
          *    Abhishek Bagusetty, David H. Bross, ...        *
          *                                                   *
          *****************************************************
          >>> job started at       Wed Dec 14 14:06:55 2022 <<<

 psp_library: /Users/bylaska/Codes/PWDFT/Nwpw/libraryps

 C library pspw_default
 H library pspw_default


 reading formatted psp filename: ./C.vpp

 reading formatted psp filename: ./H.vpp
 generating random psi from scratch
 Warning - Gram-Schmidt being performed on psi2
         - exact norm = 30 norm=36.5368 corrected norm=30 (error=6.53678)

          ==============  summary of input  ==================

 input psi filename: ./benzene1-pspw.movecs

 number of processors used: 4
 processor grid           : 4 x1
 parallel mapping         : 2d-hcurve
 parallel mapping         : balanced

 options:
   boundary conditions  = periodic
   electron spin        = restricted
   exchange-correlation = PBE96 (White and Bird) parameterization

 elements involved in the cluster:
      1: C   valence charge =  4.0  lmax =2
             comment = Parameterized (J.Phys.Chem., vol 100, page 6966) Hamman psp 
             pseudopotential type            =  0
             highest angular component       =  2
             local potential used            =  2
             number of non-local projections =  4
             cutoff =    0.800   0.850   0.850
      2: H   valence charge =  1.0  lmax =1
             comment = Parameterized (Chem.Phys.Lett., vol 322, page 447) Hamman psp 
             pseudopotential type            =  0
             highest angular component       =  1
             local potential used            =  1
             number of non-local projections =  1
             cutoff =    0.800   0.800

 total charge =   0.000

 atom composition:
   C : 6   H : 6

 initial ion positions (au):
   1 C	(    0.21721    2.59066    0.00000 ) - atomic mass = 12.000
   2 C	(   -2.13483    1.48375   -0.00000 ) - atomic mass = 12.000
   3 C	(   -2.35161   -1.10688   -0.00000 ) - atomic mass = 12.000
   4 C	(   -0.21721   -2.59066   -0.00000 ) - atomic mass = 12.000
   5 C	(    2.13483   -1.48375    0.00000 ) - atomic mass = 12.000
   6 C	(    2.35161    1.10688    0.00000 ) - atomic mass = 12.000
   7 H	(   -3.79996    2.64164   -0.00000 ) - atomic mass =  1.008
   8 H	(   -4.18711   -1.96989   -0.00000 ) - atomic mass =  1.008
   9 H	(   -0.38770   -4.61162   -0.00000 ) - atomic mass =  1.008
  10 H	(    3.79996   -2.64164    0.00000 ) - atomic mass =  1.008
  11 H	(    4.18711    1.96989    0.00000 ) - atomic mass =  1.008
  12 H	(    0.38769    4.61162    0.00000 ) - atomic mass =  1.008
   G.C.	(   -0.00000   -0.00000    0.00000 )
 C.O.M.	(    0.00000   -0.00000    0.00000 )

 real space Electric field:
     Electric Field (au) = (   0.00000    0.00000    0.00000 )
             Center (au) = (   0.00000    0.00000    0.00000 )


 number of electrons: spin up =    15 (  15 per task) down =    15 (  15 per task)

 supercell:
      volume =   17576.00
      lattice:    a1 = <   26.000    0.000    0.000 >
                  a2 = <    0.000   26.000    0.000 >
                  a3 = <    0.000    0.000   26.000 >
      reciprocal: b1 = <    0.242    0.000    0.000 >
                  b2 = <    0.000    0.242    0.000 >
                  b3 = <    0.000    0.000    0.242 >
      lattice:    a =      26.000 b =     26.000 c =      26.000
                  alpha =  90.000 beta =  90.000 gamma =  90.000
      density cutoff = 20.000 fft =  54 x   54 x   54  (   37447 waves     9364 per task)
      wavefnc cutoff = 10.000 fft =  54 x   54 x   54  (   13373 waves     3344 per task)

 Ewald parameters:
      energy cutoff =  20.000 fft =  54 x   54 x   54  (   37447 waves     9362 per task)
      Ewald summation: cut radius =   8.276 and   1
                       Mandelung Wigner-Seitz =  1.76011888 (alpha =  2.83729748 rs = 16.12911276)

 technical parameters:
      fixed step: time step =        5.80  ficticious mass =   400000.00
      tolerance =   1.000e-07 (energy)    1.000e-07 (density)    1.000e-04 (ion)
      max iterations =       1000 (   10 inner   100 outer)
      minimizer = Grassmann conjugate gradient



     ============ Grassmann conjugate gradient iteration ============
          >>> iteration started at Wed Dec 14 14:06:55 2022  <<<
     iter.                 Energy          DeltaE        DeltaRho
     ----------------------------------------------------------------
        - 10 steepest descent iterations performed
        10      -2.529393403786e+01   -2.638061e+00    1.937964e-02
        20      -3.408236733081e+01   -3.876346e-01    1.237867e-03
        30      -3.619118800751e+01   -1.195972e-01    2.446541e-04
        40      -3.688900983673e+01   -4.247182e-02    5.263323e-05
        50      -3.715527773392e+01   -1.731120e-02    1.550598e-05
        60      -3.732906716176e+01   -2.752114e-03    1.380644e-04
        70      -3.733279215799e+01   -1.583759e-05    1.373758e-07
        80      -3.733280936148e+01   -1.409038e-07    4.478064e-09
        90      -3.733280940318e+01   -4.169543e-08    5.611281e-10
     *** tolerance ok. iteration terminated
          >>> iteration ended at   Wed Dec 14 14:08:07 2022  <<<

     ==============  energy results (Molecule object)  ==============


 number of electrons: spin up=    15.00000  down=    15.00000 (real space)


 total     energy    :   -3.7332809403e+01 (   -3.11107e+00 /ion)
 total orbital energy:   -1.3262242478e+01 (   -8.84149e-01 /electron)
 hartree energy      :    8.4314213856e+01 (    5.62095e+00 /electron)
 exc-corr energy     :   -1.2602288622e+01 (   -8.40153e-01 /electron)
 ion-ion energy      :    5.6482856159e+01 (    4.70690e+00 /ion)

 kinetic (planewave) :    2.6433926431e+01 (    1.76226e+00 /electron)
 V_local (planewave) :   -1.9154368483e+02 (   -1.27696e+01 /electron)
 V_nl    (planewave) :   -4.1783239291e-01 (   -2.78555e-02 /electron)
 V_Coul  (planewave) :    1.6862842771e+02 (    1.12419e+01 /electron)
 V_xc    (planewave) :   -1.6363079394e+01 (   -1.09087e+00 /electron)
 Viral Coefficient   :   -1.5017129223e+00

 orbital energy:
    -2.2658621e-01 (  -6.166eV)
    -2.2669407e-01 (  -6.169eV)
    -2.9210779e-01 (  -7.949eV)
    -2.9219409e-01 (  -7.951eV)
    -3.3246083e-01 (  -9.047eV)
    -3.7013446e-01 ( -10.072eV)
    -3.7038340e-01 ( -10.079eV)
    -3.9765270e-01 ( -10.821eV)
    -4.0427845e-01 ( -11.001eV)
    -4.7443941e-01 ( -12.910eV)
    -5.4424813e-01 ( -14.810eV)
    -5.4439064e-01 ( -14.814eV)
    -6.8242778e-01 ( -18.570eV)
    -6.8247112e-01 ( -18.571eV)
    -7.9065216e-01 ( -21.515eV)

== Center of Charge ==

spin up    = (   -0.0000    -0.0000    -0.0000 )
spin down  = (   -0.0000    -0.0000    -0.0000 )
     total = (   -0.0000    -0.0000    -0.0000 )
ionic      = (   -0.0000    -0.0000     0.0000 )

== Molecular Dipole wrt Center of Mass ==

mu   = (   -0.0000     0.0001     0.0000 ) au
|mu| =      0.0001 au (     0.0002 Debye )

 output psi to filename: ./benzene1-pspw.movecs

 -----------------
 cputime in seconds
 prologue    : 2.242e-01
 main loop   : 7.074e+01
 epilogue    : 1.384e-01
 total       : 7.110e+01
 cputime/step: 2.649e-01 ( 267 evaluations, 81 linesearches)

 Time spent doing      total        step             percent
 total time            7.235628e+01 2.709973e-01     100.00%
 total FFT time        4.045969e+01 1.515344e-01      55.92%
 lagrange multipliers  1.591971e-01 5.962439e-04       0.22%
 local potentials      4.684577e-03 1.754523e-05       0.01%
 non-local potentials  7.048757e+00 2.639984e-02       9.74%
 ffm_dgemm             4.258719e+00 1.595026e-02       5.89%
 fmf_dgemm             9.809124e+00 3.673829e-02      13.56%
 m_diagonalize         1.126568e-02 4.219355e-05       0.02%
 mmm_multiply          1.182869e-02 4.430220e-05       0.02%

 >>> job completed at     Wed Dec 14 14:08:07 2022 <<<

Running staged energy optimization - lowlevel_rtdbstr = {"current_task":"energy","dbname":"benzene1-pspw","driver":null,"foundtask":true,"geometries":{"geometry":{"autosym":0,"autoz":0,"center":1,"charges":[6.0,6.0,6.0,6.0,6.0,6.0,1.0,1.0,1.0,1.0,1.0,1.0],"conv":1.88972598858,"coords":[0.21721130891417914,2.590664485299585,0.0,-2.1348285838679635,1.4837499285848954,-0.0,-2.3516103903739065,-1.1068848777893692,-0.0,-0.2172121294225113,-2.5906637089545907,-0.0,2.13482965308562,-1.4837491522399016,0.0,2.3516114595915636,1.1068837644083747,0.0,-3.79996063870523,2.6416360643895533,-0.0,-4.187106912259626,-1.969892501158038,-0.0,-0.38770320811219894,-4.611621718811529,-0.0,3.7999579284709095,-2.641640957222525,0.0,4.187107981477283,1.9698913877770434,0.0,0.3876891595219467,4.611622495156523,0.0],"masses":[12.0,12.0,12.0,12.0,12.0,12.0,1.008,1.008,1.008,1.008,1.008,1.008],"nion":12,"symbols":["C","C","C","C","C","C","H","H","H","H","H","H"],"unita":[1.0,0.0,0.0,0.0,1.0,0.0,0.0,0.0,1.0],"velocities":[0.0,0.0,0.0,0.0,0.0,0.0,0.0,0.0,0.0,0.0,0.0,0.0,0.0,0.0,0.0,0.0,0.0,0.0,0.0,0.0,0.0,0.0,0.0,0.0,0.0,0.0,0.0,0.0,0.0,0.0,0.0,0.0,0.0,0.0,0.0,0.0]}},"nwinput_cur":39,"nwinput_lines":["Title \"Benzene test\"","","memory 1900 mb","start benzene1-pspw","echo","","","","geometry angstroms noautosym noautoz","C         0.114944     1.370921     0.000000","C        -1.129702     0.785167    -0.000000","C        -1.244418    -0.585738    -0.000000","C        -0.114943    -1.370920    -0.000000","C         1.129704    -0.785166     0.000000","C         1.244420     0.585738     0.000000","H        -2.010852     1.397894    -0.000000","H        -2.215721    -1.042422    -0.000000","H        -0.205163    -2.440365    -0.000000","H         2.010852    -1.397896     0.000000","H         2.215723     1.042422     0.000000","H         0.205157     2.440366     0.000000","end","","nwpw","   pseudopotentials","   H library pspw_default","   C library pspw_default","   end","","   simulation_cell","     SC 26.0","   end","   2d-hcurve","   ","   xc pbe","   cutoff 30.0","end","","task pspw energy","",""],"nwinput_nlines":41,"nwpw":{"cutoff":[20.0,40.0],"mapping":3,"pseudopotentials":{"C":"pspw_default","H":"pspw_default"},"simulation_cell":{"unita":[26.0,0.0,0.0,0.0,26.0,0.0,0.0,0.0,26.0]},"xc":"pbe"},"permanent_dir":".","psp_library_dir":"","scratch_dir":".","title":"Benzene test"}

          *****************************************************
          *                                                   *
          *               PWDFT PSPW Calculation              *
          *                                                   *
          *  [ (Grassmann/Stiefel manifold implementation) ]  *
          *  [              C++ implementation             ]  *
          *                                                   *
          *              version #7.00   02/27/21             *
          *                                                   *
          *    This code was developed by Eric J. Bylaska,    *
          *    Abhishek Bagusetty, David H. Bross, ...        *
          *                                                   *
          *****************************************************
          >>> job started at       Wed Dec 14 14:08:07 2022 <<<

 psp_library: /Users/bylaska/Codes/PWDFT/Nwpw/libraryps

 C library pspw_default
 H library pspw_default


 writing formatted psp filename: ./C.vpp

 writing formatted psp filename: ./H.vpp
 psi grids are being converted: 
 -----------------------------: 
 converting .... psi:1 spin:1
 converting .... psi:2 spin:1
 converting .... psi:3 spin:1
 converting .... psi:4 spin:1
 converting .... psi:5 spin:1
 converting .... psi:6 spin:1
 converting .... psi:7 spin:1
 converting .... psi:8 spin:1
 converting .... psi:9 spin:1
 converting .... psi:10 spin:1
 converting .... psi:11 spin:1
 converting .... psi:12 spin:1
 converting .... psi:13 spin:1
 converting .... psi:14 spin:1
 converting .... psi:15 spin:1

 input psi exists, reading from file: ./benzene1-pspw.movecs

          ==============  summary of input  ==================

 input psi filename: ./benzene1-pspw.movecs

 number of processors used: 4
 processor grid           : 4 x1
 parallel mapping         : 2d-hcurve
 parallel mapping         : balanced

 options:
   boundary conditions  = periodic
   electron spin        = restricted
   exchange-correlation = PBE96 (White and Bird) parameterization

 elements involved in the cluster:
      1: C   valence charge =  4.0  lmax =2
             comment = Parameterized (J.Phys.Chem., vol 100, page 6966) Hamman psp 
             pseudopotential type            =  0
             highest angular component       =  2
             local potential used            =  2
             number of non-local projections =  4
             cutoff =    0.800   0.850   0.850
      2: H   valence charge =  1.0  lmax =1
             comment = Parameterized (Chem.Phys.Lett., vol 322, page 447) Hamman psp 
             pseudopotential type            =  0
             highest angular component       =  1
             local potential used            =  1
             number of non-local projections =  1
             cutoff =    0.800   0.800

 total charge =   0.000

 atom composition:
   C : 6   H : 6

 initial ion positions (au):
   1 C	(    0.21721    2.59066    0.00000 ) - atomic mass = 12.000
   2 C	(   -2.13483    1.48375   -0.00000 ) - atomic mass = 12.000
   3 C	(   -2.35161   -1.10688   -0.00000 ) - atomic mass = 12.000
   4 C	(   -0.21721   -2.59066   -0.00000 ) - atomic mass = 12.000
   5 C	(    2.13483   -1.48375    0.00000 ) - atomic mass = 12.000
   6 C	(    2.35161    1.10688    0.00000 ) - atomic mass = 12.000
   7 H	(   -3.79996    2.64164   -0.00000 ) - atomic mass =  1.008
   8 H	(   -4.18711   -1.96989   -0.00000 ) - atomic mass =  1.008
   9 H	(   -0.38770   -4.61162   -0.00000 ) - atomic mass =  1.008
  10 H	(    3.79996   -2.64164    0.00000 ) - atomic mass =  1.008
  11 H	(    4.18711    1.96989    0.00000 ) - atomic mass =  1.008
  12 H	(    0.38769    4.61162    0.00000 ) - atomic mass =  1.008
   G.C.	(   -0.00000   -0.00000    0.00000 )
 C.O.M.	(    0.00000   -0.00000    0.00000 )

 real space Electric field:
     Electric Field (au) = (   0.00000    0.00000    0.00000 )
             Center (au) = (   0.00000    0.00000    0.00000 )


 number of electrons: spin up =    15 (  15 per task) down =    15 (  15 per task)

 supercell:
      volume =   17576.00
      lattice:    a1 = <   26.000    0.000    0.000 >
                  a2 = <    0.000   26.000    0.000 >
                  a3 = <    0.000    0.000   26.000 >
      reciprocal: b1 = <    0.242    0.000    0.000 >
                  b2 = <    0.000    0.242    0.000 >
                  b3 = <    0.000    0.000    0.242 >
      lattice:    a =      26.000 b =     26.000 c =      26.000
                  alpha =  90.000 beta =  90.000 gamma =  90.000
      density cutoff = 40.000 fft =  80 x   80 x   80  (  106048 waves    26512 per task)
      wavefnc cutoff = 20.000 fft =  80 x   80 x   80  (   37447 waves     9364 per task)

 Ewald parameters:
      energy cutoff =  40.000 fft =  80 x   80 x   80  (  106048 waves    26512 per task)
      Ewald summation: cut radius =   8.276 and   1
                       Mandelung Wigner-Seitz =  1.76011888 (alpha =  2.83729748 rs = 16.12911276)

 technical parameters:
      fixed step: time step =        5.80  ficticious mass =   400000.00
      tolerance =   1.000e-07 (energy)    1.000e-07 (density)    1.000e-04 (ion)
      max iterations =       1000 (   10 inner   100 outer)
      minimizer = Grassmann conjugate gradient



     ============ Grassmann conjugate gradient iteration ============
          >>> iteration started at Wed Dec 14 14:08:08 2022  <<<
     iter.                 Energy          DeltaE        DeltaRho
     ----------------------------------------------------------------
        - 10 steepest descent iterations performed
        10      -3.786155915654e+01   -8.940762e-05    5.359778e-07
        20      -3.786167023658e+01   -3.787670e-07    7.040183e-09
        30      -3.786167117885e+01   -6.411436e-08    7.618150e-10
     *** tolerance ok. iteration terminated
          >>> iteration ended at   Wed Dec 14 14:09:21 2022  <<<

     ==============  energy results (Molecule object)  ==============


 number of electrons: spin up=    15.00000  down=    15.00000 (real space)


 total     energy    :   -3.7861671179e+01 (   -3.15514e+00 /ion)
 total orbital energy:   -1.3118519920e+01 (   -8.74568e-01 /electron)
 hartree energy      :    8.5011997215e+01 (    5.66747e+00 /electron)
 exc-corr energy     :   -1.2689342016e+01 (   -8.45956e-01 /electron)
 ion-ion energy      :    5.6482856159e+01 (    4.70690e+00 /ion)

 kinetic (planewave) :    2.7886904364e+01 (    1.85913e+00 /electron)
 V_local (planewave) :   -1.9324660415e+02 (   -1.28831e+01 /electron)
 V_nl    (planewave) :   -1.3074827537e+00 (   -8.71655e-02 /electron)
 V_Coul  (planewave) :    1.7002399443e+02 (    1.13349e+01 /electron)
 V_xc    (planewave) :   -1.6475331813e+01 (   -1.09836e+00 /electron)
 Viral Coefficient   :   -1.4704186506e+00

 orbital energy:
    -2.2648603e-01 (  -6.163eV)
    -2.2653895e-01 (  -6.164eV)
    -2.9613888e-01 (  -8.058eV)
    -2.9624924e-01 (  -8.061eV)
    -3.2961456e-01 (  -8.969eV)
    -3.7042156e-01 ( -10.080eV)
    -3.7052777e-01 ( -10.083eV)
    -3.9864192e-01 ( -10.848eV)
    -3.9986479e-01 ( -10.881eV)
    -4.7142806e-01 ( -12.828eV)
    -5.3518454e-01 ( -14.563eV)
    -5.3524659e-01 ( -14.565eV)
    -6.6582930e-01 ( -18.118eV)
    -6.6586175e-01 ( -18.119eV)
    -7.7122601e-01 ( -20.986eV)

== Center of Charge ==

spin up    = (   -0.0000    -0.0000    -0.0000 )
spin down  = (   -0.0000    -0.0000    -0.0000 )
     total = (   -0.0000    -0.0000    -0.0000 )
ionic      = (   -0.0000    -0.0000     0.0000 )

== Molecular Dipole wrt Center of Mass ==

mu   = (    0.0000     0.0000     0.0000 ) au
|mu| =      0.0000 au (     0.0000 Debye )

 output psi to filename: ./benzene1-pspw.movecs

 -----------------
 cputime in seconds
 prologue    : 1.167e+00
 main loop   : 7.163e+01
 epilogue    : 1.938e-01
 total       : 7.299e+01
 cputime/step: 7.871e-01 ( 91 evaluations, 26 linesearches)

 Time spent doing      total        step             percent
 total time            1.465356e+02 1.610281e+00     100.00%
 total FFT time        8.366703e+01 9.194179e-01      57.10%
 lagrange multipliers  6.601411e-01 7.254297e-03       0.45%
 local potentials      2.612699e-02 2.871097e-04       0.02%
 non-local potentials  1.367797e+01 1.503074e-01       9.33%
 ffm_dgemm             8.086404e+00 8.886159e-02       5.52%
 fmf_dgemm             1.837878e+01 2.019646e-01      12.54%
 m_diagonalize         1.468753e-02 1.614015e-04       0.01%
 mmm_multiply          1.790528e-02 1.967613e-04       0.01%

 >>> job completed at     Wed Dec 14 14:09:21 2022 <<<

Running energy calculation - rtdbstr = {"current_task":"task pspw energy","dbname":"benzene1-pspw","driver":null,"foundtask":true,"geometries":{"geometry":{"autosym":0,"autoz":0,"center":1,"charges":[6.0,6.0,6.0,6.0,6.0,6.0,1.0,1.0,1.0,1.0,1.0,1.0],"conv":1.88972598858,"coords":[0.21721130891417914,2.590664485299585,0.0,-2.1348285838679635,1.4837499285848954,-0.0,-2.3516103903739065,-1.1068848777893692,-0.0,-0.2172121294225113,-2.5906637089545907,-0.0,2.13482965308562,-1.4837491522399016,0.0,2.3516114595915636,1.1068837644083747,0.0,-3.79996063870523,2.6416360643895533,-0.0,-4.187106912259626,-1.969892501158038,-0.0,-0.38770320811219894,-4.611621718811529,-0.0,3.7999579284709095,-2.641640957222525,0.0,4.187107981477283,1.9698913877770434,0.0,0.3876891595219467,4.611622495156523,0.0],"masses":[12.0,12.0,12.0,12.0,12.0,12.0,1.008,1.008,1.008,1.008,1.008,1.008],"nion":12,"symbols":["C","C","C","C","C","C","H","H","H","H","H","H"],"unita":[1.0,0.0,0.0,0.0,1.0,0.0,0.0,0.0,1.0],"velocities":[0.0,0.0,0.0,0.0,0.0,0.0,0.0,0.0,0.0,0.0,0.0,0.0,0.0,0.0,0.0,0.0,0.0,0.0,0.0,0.0,0.0,0.0,0.0,0.0,0.0,0.0,0.0,0.0,0.0,0.0,0.0,0.0,0.0,0.0,0.0,0.0]}},"nwinput_cur":39,"nwinput_lines":["Title \"Benzene test\"","","memory 1900 mb","start benzene1-pspw","echo","","","","geometry angstroms noautosym noautoz","C         0.114944     1.370921     0.000000","C        -1.129702     0.785167    -0.000000","C        -1.244418    -0.585738    -0.000000","C        -0.114943    -1.370920    -0.000000","C         1.129704    -0.785166     0.000000","C         1.244420     0.585738     0.000000","H        -2.010852     1.397894    -0.000000","H        -2.215721    -1.042422    -0.000000","H        -0.205163    -2.440365    -0.000000","H         2.010852    -1.397896     0.000000","H         2.215723     1.042422     0.000000","H         0.205157     2.440366     0.000000","end","","nwpw","   pseudopotentials","   H library pspw_default","   C library pspw_default","   end","","   simulation_cell","     SC 26.0","   end","   2d-hcurve","   ","   xc pbe","   cutoff 30.0","end","","task pspw energy","",""],"nwinput_nlines":41,"nwpw":{"cutoff":[30.0,60.0],"mapping":3,"pseudopotentials":{"C":"pspw_default","H":"pspw_default"},"simulation_cell":{"unita":[26.0,0.0,0.0,0.0,26.0,0.0,0.0,0.0,26.0]},"xc":"pbe"},"permanent_dir":".","psp_library_dir":"","scratch_dir":".","title":"Benzene test"}

          *****************************************************
          *                                                   *
          *               PWDFT PSPW Calculation              *
          *                                                   *
          *  [ (Grassmann/Stiefel manifold implementation) ]  *
          *  [              C++ implementation             ]  *
          *                                                   *
          *              version #7.00   02/27/21             *
          *                                                   *
          *    This code was developed by Eric J. Bylaska,    *
          *    Abhishek Bagusetty, David H. Bross, ...        *
          *                                                   *
          *****************************************************
          >>> job started at       Wed Dec 14 14:09:21 2022 <<<

 psp_library: /Users/bylaska/Codes/PWDFT/Nwpw/libraryps

 C library pspw_default
 H library pspw_default


 writing formatted psp filename: ./C.vpp

 writing formatted psp filename: ./H.vpp
 psi grids are being converted: 
 -----------------------------: 
 converting .... psi:1 spin:1
 converting .... psi:2 spin:1
 converting .... psi:3 spin:1
 converting .... psi:4 spin:1
 converting .... psi:5 spin:1
 converting .... psi:6 spin:1
 converting .... psi:7 spin:1
 converting .... psi:8 spin:1
 converting .... psi:9 spin:1
 converting .... psi:10 spin:1
 converting .... psi:11 spin:1
 converting .... psi:12 spin:1
 converting .... psi:13 spin:1
 converting .... psi:14 spin:1
 converting .... psi:15 spin:1

 input psi exists, reading from file: ./benzene1-pspw.movecs

          ==============  summary of input  ==================

 input psi filename: ./benzene1-pspw.movecs

 number of processors used: 4
 processor grid           : 4 x1
 parallel mapping         : 2d-hcurve
 parallel mapping         : balanced

 options:
   boundary conditions  = periodic
   electron spin        = restricted
   exchange-correlation = PBE96 (White and Bird) parameterization

 elements involved in the cluster:
      1: C   valence charge =  4.0  lmax =2
             comment = Parameterized (J.Phys.Chem., vol 100, page 6966) Hamman psp 
             pseudopotential type            =  0
             highest angular component       =  2
             local potential used            =  2
             number of non-local projections =  4
             cutoff =    0.800   0.850   0.850
      2: H   valence charge =  1.0  lmax =1
             comment = Parameterized (Chem.Phys.Lett., vol 322, page 447) Hamman psp 
             pseudopotential type            =  0
             highest angular component       =  1
             local potential used            =  1
             number of non-local projections =  1
             cutoff =    0.800   0.800

 total charge =   0.000

 atom composition:
   C : 6   H : 6

 initial ion positions (au):
   1 C	(    0.21721    2.59066    0.00000 ) - atomic mass = 12.000
   2 C	(   -2.13483    1.48375   -0.00000 ) - atomic mass = 12.000
   3 C	(   -2.35161   -1.10688   -0.00000 ) - atomic mass = 12.000
   4 C	(   -0.21721   -2.59066   -0.00000 ) - atomic mass = 12.000
   5 C	(    2.13483   -1.48375    0.00000 ) - atomic mass = 12.000
   6 C	(    2.35161    1.10688    0.00000 ) - atomic mass = 12.000
   7 H	(   -3.79996    2.64164   -0.00000 ) - atomic mass =  1.008
   8 H	(   -4.18711   -1.96989   -0.00000 ) - atomic mass =  1.008
   9 H	(   -0.38770   -4.61162   -0.00000 ) - atomic mass =  1.008
  10 H	(    3.79996   -2.64164    0.00000 ) - atomic mass =  1.008
  11 H	(    4.18711    1.96989    0.00000 ) - atomic mass =  1.008
  12 H	(    0.38769    4.61162    0.00000 ) - atomic mass =  1.008
   G.C.	(   -0.00000   -0.00000    0.00000 )
 C.O.M.	(    0.00000   -0.00000    0.00000 )

 real space Electric field:
     Electric Field (au) = (   0.00000    0.00000    0.00000 )
             Center (au) = (   0.00000    0.00000    0.00000 )


 number of electrons: spin up =    15 (  15 per task) down =    15 (  15 per task)

 supercell:
      volume =   17576.00
      lattice:    a1 = <   26.000    0.000    0.000 >
                  a2 = <    0.000   26.000    0.000 >
                  a3 = <    0.000    0.000   26.000 >
      reciprocal: b1 = <    0.242    0.000    0.000 >
                  b2 = <    0.000    0.242    0.000 >
                  b3 = <    0.000    0.000    0.242 >
      lattice:    a =      26.000 b =     26.000 c =      26.000
                  alpha =  90.000 beta =  90.000 gamma =  90.000
      density cutoff = 60.000 fft =  96 x   96 x   96  (  195216 waves    48804 per task)
      wavefnc cutoff = 30.000 fft =  96 x   96 x   96  (   69013 waves    17254 per task)

 Ewald parameters:
      energy cutoff =  60.000 fft =  96 x   96 x   96  (  195216 waves    48804 per task)
      Ewald summation: cut radius =   8.276 and   1
                       Mandelung Wigner-Seitz =  1.76011888 (alpha =  2.83729748 rs = 16.12911276)

 technical parameters:
      fixed step: time step =        5.80  ficticious mass =   400000.00
      tolerance =   1.000e-07 (energy)    1.000e-07 (density)    1.000e-04 (ion)
      max iterations =       1000 (   10 inner   100 outer)
      minimizer = Grassmann conjugate gradient



     ============ Grassmann conjugate gradient iteration ============
          >>> iteration started at Wed Dec 14 14:09:24 2022  <<<
     iter.                 Energy          DeltaE        DeltaRho
     ----------------------------------------------------------------
        - 10 steepest descent iterations performed
        10      -3.788093628026e+01   -2.771153e-07    5.278752e-09
        20      -3.788093638005e+01   -9.978996e-08    3.606779e-10
     *** tolerance ok. iteration terminated
          >>> iteration ended at   Wed Dec 14 14:10:28 2022  <<<

     ==============  energy results (Molecule object)  ==============


 number of electrons: spin up=    15.00000  down=    15.00000 (real space)


 total     energy    :   -3.7880936380e+01 (   -3.15674e+00 /ion)
 total orbital energy:   -1.3123501420e+01 (   -8.74900e-01 /electron)
 hartree energy      :    8.5027146290e+01 (    5.66848e+00 /electron)
 exc-corr energy     :   -1.2695251086e+01 (   -8.46350e-01 /electron)
 ion-ion energy      :    5.6482856159e+01 (    4.70690e+00 /ion)

 kinetic (planewave) :    2.7929949184e+01 (    1.86200e+00 /electron)
 V_local (planewave) :   -1.9328834336e+02 (   -1.28859e+01 /electron)
 V_nl    (planewave) :   -1.3372935656e+00 (   -8.91529e-02 /electron)
 V_Coul  (planewave) :    1.7005429258e+02 (    1.13370e+01 /electron)
 V_xc    (planewave) :   -1.6482106257e+01 (   -1.09881e+00 /electron)
 Viral Coefficient   :   -1.4698720121e+00

 orbital energy:
    -2.2674267e-01 (  -6.170eV)
    -2.2677850e-01 (  -6.171eV)
    -2.9659883e-01 (  -8.071eV)
    -2.9669338e-01 (  -8.074eV)
    -3.2980554e-01 (  -8.975eV)
    -3.7086300e-01 ( -10.092eV)
    -3.7095780e-01 ( -10.094eV)
    -3.9885831e-01 ( -10.854eV)
    -4.0015156e-01 ( -10.889eV)
    -4.7170830e-01 ( -12.836eV)
    -5.3522216e-01 ( -14.564eV)
    -5.3524177e-01 ( -14.565eV)
    -6.6557906e-01 ( -18.111eV)
    -6.6564111e-01 ( -18.113eV)
    -7.7090872e-01 ( -20.978eV)

== Center of Charge ==

spin up    = (   -0.0000    -0.0000    -0.0000 )
spin down  = (   -0.0000    -0.0000    -0.0000 )
     total = (   -0.0000    -0.0000    -0.0000 )
ionic      = (   -0.0000    -0.0000     0.0000 )

== Molecular Dipole wrt Center of Mass ==

mu   = (    0.0000     0.0000     0.0000 ) au
|mu| =      0.0000 au (     0.0000 Debye )

 output psi to filename: ./benzene1-pspw.movecs

 -----------------
 cputime in seconds
 prologue    : 2.079e+00
 main loop   : 6.360e+01
 epilogue    : 3.879e-01
 total       : 6.607e+01
 cputime/step: 1.413e+00 ( 45 evaluations, 11 linesearches)

 Time spent doing      total        step             percent
 total time            2.134330e+02 4.742956e+00     100.00%
 total FFT time        1.224050e+02 2.720111e+00      57.35%
 lagrange multipliers  1.580750e+00 3.512779e-02       0.74%
 local potentials      6.414214e-02 1.425381e-03       0.03%
 non-local potentials  1.976300e+01 4.391778e-01       9.26%
 ffm_dgemm             1.136379e+01 2.525287e-01       5.32%
 fmf_dgemm             2.530586e+01 5.623524e-01      11.86%
 m_diagonalize         1.632014e-02 3.626697e-04       0.01%
 mmm_multiply          2.264619e-02 5.032487e-04       0.01%

 >>> job completed at     Wed Dec 14 14:10:28 2022 <<<

Next rtdbstr={"current_task":"task pspw energy","dbname":"benzene1-pspw","driver":null,"foundtask":false,"geometries":{"geometry":{"autosym":0,"autoz":0,"center":1,"charges":[6.0,6.0,6.0,6.0,6.0,6.0,1.0,1.0,1.0,1.0,1.0,1.0],"conv":1.88972598858,"coords":[0.21721130891417914,2.590664485299585,0.0,-2.1348285838679635,1.4837499285848954,-0.0,-2.3516103903739065,-1.1068848777893692,-0.0,-0.2172121294225113,-2.5906637089545907,-0.0,2.13482965308562,-1.4837491522399016,0.0,2.3516114595915636,1.1068837644083747,0.0,-3.79996063870523,2.6416360643895533,-0.0,-4.187106912259626,-1.969892501158038,-0.0,-0.38770320811219894,-4.611621718811529,-0.0,3.7999579284709095,-2.641640957222525,0.0,4.187107981477283,1.9698913877770434,0.0,0.3876891595219467,4.611622495156523,0.0],"masses":[12.0,12.0,12.0,12.0,12.0,12.0,1.008,1.008,1.008,1.008,1.008,1.008],"nion":12,"symbols":["C","C","C","C","C","C","H","H","H","H","H","H"],"unita":[1.0,0.0,0.0,0.0,1.0,0.0,0.0,0.0,1.0],"velocities":[0.0,0.0,0.0,0.0,0.0,0.0,0.0,0.0,0.0,0.0,0.0,0.0,0.0,0.0,0.0,0.0,0.0,0.0,0.0,0.0,0.0,0.0,0.0,0.0,0.0,0.0,0.0,0.0,0.0,0.0,0.0,0.0,0.0,0.0,0.0,0.0]}},"geometry":null,"nwinput_cur":41,"nwinput_lines":["Title \"Benzene test\"","","memory 1900 mb","start benzene1-pspw","echo","","","","geometry angstroms noautosym noautoz","C         0.114944     1.370921     0.000000","C        -1.129702     0.785167    -0.000000","C        -1.244418    -0.585738    -0.000000","C        -0.114943    -1.370920    -0.000000","C         1.129704    -0.785166     0.000000","C         1.244420     0.585738     0.000000","H        -2.010852     1.397894    -0.000000","H        -2.215721    -1.042422    -0.000000","H        -0.205163    -2.440365    -0.000000","H         2.010852    -1.397896     0.000000","H         2.215723     1.042422     0.000000","H         0.205157     2.440366     0.000000","end","","nwpw","   pseudopotentials","   H library pspw_default","   C library pspw_default","   end","","   simulation_cell","     SC 26.0","   end","   2d-hcurve","   ","   xc pbe","   cutoff 30.0","end","","task pspw energy","",""],"nwinput_nlines":41,"nwpw":{"cutoff":[30.0,60.0],"dipole":[3.596793728964144e-09,1.0638554030844697e-06,8.990964019951144e-08],"dipole_magnitude":1.0676539696914698e-06,"initialize_wavefunction":null,"mapping":3,"pseudopotentials":{"C":"pspw_default","H":"pspw_default"},"simulation_cell":{"unita":[26.0,0.0,0.0,0.0,26.0,0.0,0.0,0.0,26.0]},"xc":"pbe"},"permanent_dir":".","psp_library_dir":"","pspw":{"eigenvalues":[-0.22674266636062215,-0.22677850233998575,-0.29659883207310256,-0.29669338478110047,-0.329805538678545,-0.37086299765927916,-0.370957803428148,-0.39885831071607425,-0.4001515569364534,-0.4717082983065469,-0.5352221618080713,-0.5352417651248929,-0.6655790633980837,-0.6656411103389626,-0.7709087182987115],"energies":[-37.880936380050954,-13.123501420497156,85.02714628999412,-12.695251085619903,56.48285615891753,27.92994918368682,-193.28834336139045,-1.3372935656369958,170.05429257998824,-16.482106257142703,0.0,0.0,0.0,0.0,0.0,0.0,0.0,0.0,0.0,0.0,0.0,0.0,0.0,0.0,0.0,0.0,0.0,0.0,0.0,0.0,0.0,0.0,0.0,0.0,0.0,0.0,0.0,0.0,0.0,0.0,0.0,0.0,0.0,0.0,0.0,0.0,0.0,0.0,0.0,0.0,0.0,0.0,0.0,0.0,0.0,0.0,0.0,0.0,0.0,0.0],"energy":-37.880936380050954},"scratch_dir":".","title":"Benzene test"}
Next task =0

writing rtdbjson = ./benzene1-pspw.json
