pwdft (NWChemEx) - Version 1.0

============================== echo of input deck ==============================
title "CH3Cl - PBE/30 Ry
#machinejob:expert

echo

start pspw-pbe-ch3cl

memory 1900 mb

permanent_dir ./perm
scratch_dir   ./perm

charge 0

geometry noautosym nocenter noautoz
C   0.456014 -1.041025 -0.142619
H   1.534496 -0.935588 -0.168315
H   0.149455 -1.660229 0.692550
H   0.086258 -1.445367 -1.077867
Cl   -0.263152 0.600745 0.082298
end
set nwpw:cif_filename  ch3cl


nwpw
  simulation_cell
     FCC 38.0
  end

  ### pseudopotential block begin ###
  ### pseudopotential block end   ###
  cutoff 30.0
  mult 1
  xc pbe96
  lmbfgs grassman 

  2d-hcurve
end

task pspw energy
================================================================================

              NorthwestEx Computational Chemistry Package 1.0.0
           --------------------------------------------------------

                  Pacific Northwest National Laboratory
                           Richland, WA 99354

                         Copyright (c) 2020
                  Pacific Northwest National Laboratory
                       Battelle Memorial Institute

        NWChemEx is an open-source computational chemistry package
                   distributed under the terms of the
                 Educational Community License (ECL) 2.0
        A copy of the license is included with this distribution
                         in the LICENSE.TXT file

                             ACKNOWLEDGMENT
                             --------------

       This software and its documentation were developed at the
       Pacific Northwest National Laboratory, a multiprogram
       national laboratory, operated for the U.S. Department of Energy
       by Battelle under Contract Number DE-AC05-76RL01830. Support
       for this work was provided by the Department of Energy 
       Office of Advanced Scientific Computing and the Office of Basic
       Energy Sciences.

       Job information
       ---------------
       program               = pwdft (NWChemEx)
       build configured      = Wed Dec 14 11:12:17 2022
       source                = /Users/bylaska/Codes/PWDFT/Nwpw
       version               = 1.0
       default psp libraries = /Users/bylaska/Codes/PWDFT/Nwpw/libraryps

       date                  = Wed Dec 14 11:46:54 2022
       nproc                 = 4
       input                 = dungeon01.nw



First rtdbstr={"charge":0,"current_task":"task pspw energy","dbname":"pspw-pbe-ch3cl","driver":null,"foundtask":true,"geometries":{"geometry":{"autosym":0,"autoz":0,"center":0,"charges":[6.0,1.0,1.0,1.0,17.0],"conv":1.88972598858,"coords":[0.86174150695632,-1.9672519972614946,-0.26951083076529103,2.8997769705720557,-1.768004958203585,-0.3180692297678427,0.2824289976232239,-3.1373778882941847,1.308729733391079,0.16300398432293364,-2.731347582935909,-2.0368732821327584,-0.49728517334680417,1.135243439009492,0.15552066940815684],"masses":[12.0,1.008,1.008,1.008,34.96885],"nion":5,"symbols":["C","H","H","H","Cl"],"unita":[1.0,0.0,0.0,0.0,1.0,0.0,0.0,0.0,1.0],"velocities":[0.0,0.0,0.0,0.0,0.0,0.0,0.0,0.0,0.0,0.0,0.0,0.0,0.0,0.0,0.0]}},"nwinput_cur":40,"nwinput_lines":["title \"CH3Cl - PBE/30 Ry","","","echo","","start pspw-pbe-ch3cl","","memory 1900 mb","","permanent_dir ./perm","scratch_dir   ./perm","","charge 0","","geometry noautosym nocenter noautoz","C   0.456014 -1.041025 -0.142619","H   1.534496 -0.935588 -0.168315","H   0.149455 -1.660229 0.692550","H   0.086258 -1.445367 -1.077867","Cl   -0.263152 0.600745 0.082298","end","set nwpw:cif_filename  ch3cl","","","nwpw","  simulation_cell","     FCC 38.0","  end","","  ","  ","  cutoff 30.0","  mult 1","  xc pbe96","  lmbfgs grassman ","","  2d-hcurve","end","","task pspw energy",""],"nwinput_nlines":41,"nwpw":{"cutoff":[30.0,60.0],"mapping":3,"minimizer":2,"simulation_cell":{"unita":[19.0,19.0,0.0,19.0,0.0,19.0,0.0,19.0,19.0]},"xc":"pbe96"},"nwpw:cif_filename":"ch3cl","permanent_dir":"./perm","psp_library_dir":"","scratch_dir":"./perm","title":"CH3Cl - PBE/30 Ry"}
First task=1


Running staged energy optimization - lowlevel_rtdbstr = {"charge":0,"current_task":"energy","dbname":"pspw-pbe-ch3cl","driver":null,"foundtask":true,"geometries":{"geometry":{"autosym":0,"autoz":0,"center":0,"charges":[6.0,1.0,1.0,1.0,17.0],"conv":1.88972598858,"coords":[0.86174150695632,-1.9672519972614946,-0.26951083076529103,2.8997769705720557,-1.768004958203585,-0.3180692297678427,0.2824289976232239,-3.1373778882941847,1.308729733391079,0.16300398432293364,-2.731347582935909,-2.0368732821327584,-0.49728517334680417,1.135243439009492,0.15552066940815684],"masses":[12.0,1.008,1.008,1.008,34.96885],"nion":5,"symbols":["C","H","H","H","Cl"],"unita":[1.0,0.0,0.0,0.0,1.0,0.0,0.0,0.0,1.0],"velocities":[0.0,0.0,0.0,0.0,0.0,0.0,0.0,0.0,0.0,0.0,0.0,0.0,0.0,0.0,0.0]}},"nwinput_cur":40,"nwinput_lines":["title \"CH3Cl - PBE/30 Ry","","","echo","","start pspw-pbe-ch3cl","","memory 1900 mb","","permanent_dir ./perm","scratch_dir   ./perm","","charge 0","","geometry noautosym nocenter noautoz","C   0.456014 -1.041025 -0.142619","H   1.534496 -0.935588 -0.168315","H   0.149455 -1.660229 0.692550","H   0.086258 -1.445367 -1.077867","Cl   -0.263152 0.600745 0.082298","end","set nwpw:cif_filename  ch3cl","","","nwpw","  simulation_cell","     FCC 38.0","  end","","  ","  ","  cutoff 30.0","  mult 1","  xc pbe96","  lmbfgs grassman ","","  2d-hcurve","end","","task pspw energy",""],"nwinput_nlines":41,"nwpw":{"cutoff":[10.0,20.0],"mapping":3,"minimizer":2,"simulation_cell":{"unita":[19.0,19.0,0.0,19.0,0.0,19.0,0.0,19.0,19.0]},"xc":"pbe96"},"nwpw:cif_filename":"ch3cl","permanent_dir":"./perm","psp_library_dir":"","scratch_dir":"./perm","title":"CH3Cl - PBE/30 Ry"}

          *****************************************************
          *                                                   *
          *               PWDFT PSPW Calculation              *
          *                                                   *
          *  [ (Grassmann/Stiefel manifold implementation) ]  *
          *  [              C++ implementation             ]  *
          *                                                   *
          *              version #7.00   02/27/21             *
          *                                                   *
          *    This code was developed by Eric J. Bylaska,    *
          *    Abhishek Bagusetty, David H. Bross, ...        *
          *                                                   *
          *****************************************************
          >>> job started at       Wed Dec 14 11:46:54 2022 <<<

 psp_library: /Users/bylaska/Codes/PWDFT/Nwpw/libraryps


 generating 1d pseudopotential file: ./perm/C.psp
 generating 1d pseudopotential file: ./perm/H.psp
 generating 1d pseudopotential file: ./perm/Cl.psp

 writing formatted psp filename: ./perm/C.vpp

 writing formatted psp filename: ./perm/H.vpp

 writing formatted psp filename: ./perm/Cl.vpp
 generating random psi from scratch
 Warning - Gram-Schmidt being performed on psi2
         - exact norm = 14 norm=17.439 corrected norm=14 (error=3.43904)

          ==============  summary of input  ==================

 input psi filename: ./perm/pspw-pbe-ch3cl.movecs

 number of processors used: 4
 processor grid           : 4 x1
 parallel mapping         : 2d-hcurve
 parallel mapping         : balanced

 options:
   boundary conditions  = periodic
   electron spin        = restricted
   exchange-correlation = PBE96 (White and Bird) parameterization

 elements involved in the cluster:
      1: C   valence charge =  4.0  lmax =2
             comment = Parameterized (J.Phys.Chem., vol 100, page 6966) Hamman psp 
             pseudopotential type            =  0
             highest angular component       =  2
             local potential used            =  2
             number of non-local projections =  4
             cutoff =    0.800   0.850   0.850
      2: H   valence charge =  1.0  lmax =1
             comment = Parameterized (Chem.Phys.Lett., vol 322, page 447) Hamman psp 
             pseudopotential type            =  0
             highest angular component       =  1
             local potential used            =  1
             number of non-local projections =  1
             cutoff =    0.800   0.800
      3: Cl  valence charge =  7.0  lmax =2
             comment = Troullier-Martins pseudopotential
             pseudopotential type            =  0
             highest angular component       =  2
             local potential used            =  2
             number of non-local projections =  4
             semicore corrections inlcuded   =  1.300 (radius) 0.283 (charge)
             cutoff =    1.340   1.450   1.450

 total charge =   0.000

 atom composition:
   C : 1   H : 3   Cl : 1

 initial ion positions (au):
   1 C	(    0.86174   -1.96725   -0.26951 ) - atomic mass = 12.000
   2 H	(    2.89978   -1.76800   -0.31807 ) - atomic mass =  1.008
   3 H	(    0.28243   -3.13738    1.30873 ) - atomic mass =  1.008
   4 H	(    0.16300   -2.73135   -2.03687 ) - atomic mass =  1.008
   5 Cl	(   -0.49729    1.13524    0.15552 ) - atomic mass = 34.969
   G.C.	(    0.74193   -1.69375   -0.23204 )
 C.O.M.	(   -0.07354    0.16789    0.02300 )

 real space Electric field:
     Electric Field (au) = (   0.00000    0.00000    0.00000 )
             Center (au) = (   0.00000    0.00000    0.00000 )


 number of electrons: spin up =     7 (   7 per task) down =     7 (   7 per task)

 supercell:
      volume =   13718.00
      lattice:    a1 = <   19.000   19.000    0.000 >
                  a2 = <   19.000    0.000   19.000 >
                  a3 = <    0.000   19.000   19.000 >
      reciprocal: b1 = <    0.165    0.165   -0.165 >
                  b2 = <    0.165   -0.165    0.165 >
                  b3 = <   -0.165    0.165    0.165 >
      lattice:    a =      26.870 b =     26.870 c =      26.870
                  alpha =  60.000 beta =  60.000 gamma =  60.000
      density cutoff = 20.000 fft =  48 x   48 x   48  (   27158 waves     6791 per task)
      wavefnc cutoff = 10.000 fft =  48 x   48 x   48  (   10414 waves     2605 per task)

 Ewald parameters:
      energy cutoff =  20.000 fft =  48 x   48 x   48  (   27158 waves     6790 per task)
      Ewald summation: cut radius =   8.553 and   1
                       Mandelung Wigner-Seitz =  1.79174723 (alpha =  2.88828212 rs = 14.85026019)

 technical parameters:
      fixed step: time step =        5.80  ficticious mass =   400000.00
      tolerance =   1.000e-07 (energy)    1.000e-07 (density)    1.000e-04 (ion)
      max iterations =       1000 (   10 inner   100 outer)
      minimizer = Grassmann lmbfgs



     ================== Grassmann lmbfgs iteration ==================
          >>> iteration started at Wed Dec 14 11:46:55 2022  <<<
     iter.                 Energy          DeltaE        DeltaRho
     ----------------------------------------------------------------
        - 10 steepest descent iterations performed
        10      -2.101523022180e+01   -8.138264e-01    1.847300e-02
        20      -2.256353450240e+01   -7.537772e-03    6.383342e-05
        30      -2.257404856730e+01   -4.588998e-05    6.078167e-08
        40      -2.257412337169e+01   -5.598413e-07    3.474812e-10
        50      -2.257412436709e+01   -6.343227e-08    2.558589e-11
     *** tolerance ok. iteration terminated
          >>> iteration ended at   Wed Dec 14 11:47:10 2022  <<<

     ==============  energy results (Molecule object)  ==============


 number of electrons: spin up=     7.00000  down=     7.00000 (real space)


 total     energy    :   -2.2574124367e+01 (   -4.51482e+00 /ion)
 total orbital energy:   -6.1378438669e+00 (   -8.76835e-01 /electron)
 hartree energy      :    2.5911871352e+01 (    3.70170e+00 /electron)
 exc-corr energy     :   -5.8778142204e+00 (   -8.39688e-01 /electron)
 ion-ion energy      :    7.9267863640e+00 (    1.58536e+00 /ion)

 kinetic (planewave) :    1.0924130045e+01 (    1.56059e+00 /electron)
 V_local (planewave) :   -6.4750559530e+01 (   -9.25008e+00 /electron)
 V_nl    (planewave) :    3.2914616219e+00 (    4.70209e-01 /electron)
 V_Coul  (planewave) :    5.1823742705e+01 (    7.40339e+00 /electron)
 V_xc    (planewave) :   -7.4266187084e+00 (   -1.06095e+00 /electron)
 Viral Coefficient   :   -1.5618611131e+00

 orbital energy:
    -2.5616399e-01 (  -6.971eV)
    -2.5648406e-01 (  -6.979eV)
    -3.7100593e-01 ( -10.096eV)
    -3.9913839e-01 ( -10.861eV)
    -3.9949845e-01 ( -10.871eV)
    -6.1566903e-01 ( -16.753eV)
    -7.7096209e-01 ( -20.979eV)

== Center of Charge ==

spin up    = (    0.2145    -0.4897    -0.0671 )
spin down  = (    0.2145    -0.4897    -0.0671 )
     total = (    0.2145    -0.4897    -0.0671 )
ionic      = (    0.2365    -0.5399    -0.0740 )

== Molecular Dipole wrt Center of Mass ==

mu   = (    0.3081    -0.7033    -0.0968 ) au
|mu| =      0.7739 au (     1.9670 Debye )

 output psi to filename: ./perm/pspw-pbe-ch3cl.movecs

 -----------------
 cputime in seconds
 prologue    : 9.931e-01
 main loop   : 1.467e+01
 epilogue    : 4.703e-02
 total       : 1.571e+01
 cputime/step: 9.055e-02 ( 162 evaluations, 45 linesearches)

 Time spent doing      total        step             percent
 total time            1.643286e+01 1.014374e-01     100.00%
 total FFT time        9.651183e+00 5.957521e-02      58.73%
 lagrange multipliers  2.887618e-02 1.782480e-04       0.18%
 local potentials      1.503378e-03 9.280111e-06       0.01%
 non-local potentials  6.489663e-01 4.005965e-03       3.95%
 ffm_dgemm             5.019813e-01 3.098650e-03       3.05%
 fmf_dgemm             1.064388e+00 6.570297e-03       6.48%
 m_diagonalize         1.846635e-03 1.139898e-05       0.01%
 mmm_multiply          1.449948e-03 8.950296e-06       0.01%

 >>> job completed at     Wed Dec 14 11:47:10 2022 <<<

Running staged energy optimization - lowlevel_rtdbstr = {"charge":0,"current_task":"energy","dbname":"pspw-pbe-ch3cl","driver":null,"foundtask":true,"geometries":{"geometry":{"autosym":0,"autoz":0,"center":0,"charges":[6.0,1.0,1.0,1.0,17.0],"conv":1.88972598858,"coords":[0.86174150695632,-1.9672519972614946,-0.26951083076529103,2.8997769705720557,-1.768004958203585,-0.3180692297678427,0.2824289976232239,-3.1373778882941847,1.308729733391079,0.16300398432293364,-2.731347582935909,-2.0368732821327584,-0.49728517334680417,1.135243439009492,0.15552066940815684],"masses":[12.0,1.008,1.008,1.008,34.96885],"nion":5,"symbols":["C","H","H","H","Cl"],"unita":[1.0,0.0,0.0,0.0,1.0,0.0,0.0,0.0,1.0],"velocities":[0.0,0.0,0.0,0.0,0.0,0.0,0.0,0.0,0.0,0.0,0.0,0.0,0.0,0.0,0.0]}},"nwinput_cur":40,"nwinput_lines":["title \"CH3Cl - PBE/30 Ry","","","echo","","start pspw-pbe-ch3cl","","memory 1900 mb","","permanent_dir ./perm","scratch_dir   ./perm","","charge 0","","geometry noautosym nocenter noautoz","C   0.456014 -1.041025 -0.142619","H   1.534496 -0.935588 -0.168315","H   0.149455 -1.660229 0.692550","H   0.086258 -1.445367 -1.077867","Cl   -0.263152 0.600745 0.082298","end","set nwpw:cif_filename  ch3cl","","","nwpw","  simulation_cell","     FCC 38.0","  end","","  ","  ","  cutoff 30.0","  mult 1","  xc pbe96","  lmbfgs grassman ","","  2d-hcurve","end","","task pspw energy",""],"nwinput_nlines":41,"nwpw":{"cutoff":[20.0,40.0],"mapping":3,"minimizer":2,"simulation_cell":{"unita":[19.0,19.0,0.0,19.0,0.0,19.0,0.0,19.0,19.0]},"xc":"pbe96"},"nwpw:cif_filename":"ch3cl","permanent_dir":"./perm","psp_library_dir":"","scratch_dir":"./perm","title":"CH3Cl - PBE/30 Ry"}

          *****************************************************
          *                                                   *
          *               PWDFT PSPW Calculation              *
          *                                                   *
          *  [ (Grassmann/Stiefel manifold implementation) ]  *
          *  [              C++ implementation             ]  *
          *                                                   *
          *              version #7.00   02/27/21             *
          *                                                   *
          *    This code was developed by Eric J. Bylaska,    *
          *    Abhishek Bagusetty, David H. Bross, ...        *
          *                                                   *
          *****************************************************
          >>> job started at       Wed Dec 14 11:47:10 2022 <<<

 psp_library: /Users/bylaska/Codes/PWDFT/Nwpw/libraryps



 writing formatted psp filename: ./perm/C.vpp

 writing formatted psp filename: ./perm/H.vpp

 writing formatted psp filename: ./perm/Cl.vpp
 psi grids are being converted: 
 -----------------------------: 
 converting .... psi:1 spin:1
 converting .... psi:2 spin:1
 converting .... psi:3 spin:1
 converting .... psi:4 spin:1
 converting .... psi:5 spin:1
 converting .... psi:6 spin:1
 converting .... psi:7 spin:1

 input psi exists, reading from file: ./perm/pspw-pbe-ch3cl.movecs

          ==============  summary of input  ==================

 input psi filename: ./perm/pspw-pbe-ch3cl.movecs

 number of processors used: 4
 processor grid           : 4 x1
 parallel mapping         : 2d-hcurve
 parallel mapping         : balanced

 options:
   boundary conditions  = periodic
   electron spin        = restricted
   exchange-correlation = PBE96 (White and Bird) parameterization

 elements involved in the cluster:
      1: C   valence charge =  4.0  lmax =2
             comment = Parameterized (J.Phys.Chem., vol 100, page 6966) Hamman psp 
             pseudopotential type            =  0
             highest angular component       =  2
             local potential used            =  2
             number of non-local projections =  4
             cutoff =    0.800   0.850   0.850
      2: H   valence charge =  1.0  lmax =1
             comment = Parameterized (Chem.Phys.Lett., vol 322, page 447) Hamman psp 
             pseudopotential type            =  0
             highest angular component       =  1
             local potential used            =  1
             number of non-local projections =  1
             cutoff =    0.800   0.800
      3: Cl  valence charge =  7.0  lmax =2
             comment = Troullier-Martins pseudopotential
             pseudopotential type            =  0
             highest angular component       =  2
             local potential used            =  2
             number of non-local projections =  4
             semicore corrections inlcuded   =  1.300 (radius) 0.284 (charge)
             cutoff =    1.340   1.450   1.450

 total charge =   0.000

 atom composition:
   C : 1   H : 3   Cl : 1

 initial ion positions (au):
   1 C	(    0.86174   -1.96725   -0.26951 ) - atomic mass = 12.000
   2 H	(    2.89978   -1.76800   -0.31807 ) - atomic mass =  1.008
   3 H	(    0.28243   -3.13738    1.30873 ) - atomic mass =  1.008
   4 H	(    0.16300   -2.73135   -2.03687 ) - atomic mass =  1.008
   5 Cl	(   -0.49729    1.13524    0.15552 ) - atomic mass = 34.969
   G.C.	(    0.74193   -1.69375   -0.23204 )
 C.O.M.	(   -0.07354    0.16789    0.02300 )

 real space Electric field:
     Electric Field (au) = (   0.00000    0.00000    0.00000 )
             Center (au) = (   0.00000    0.00000    0.00000 )


 number of electrons: spin up =     7 (   7 per task) down =     7 (   7 per task)

 supercell:
      volume =   13718.00
      lattice:    a1 = <   19.000   19.000    0.000 >
                  a2 = <   19.000    0.000   19.000 >
                  a3 = <    0.000   19.000   19.000 >
      reciprocal: b1 = <    0.165    0.165   -0.165 >
                  b2 = <    0.165   -0.165    0.165 >
                  b3 = <   -0.165    0.165    0.165 >
      lattice:    a =      26.870 b =     26.870 c =      26.870
                  alpha =  60.000 beta =  60.000 gamma =  60.000
      density cutoff = 40.000 fft =  64 x   64 x   64  (   72119 waves    18029 per task)
      wavefnc cutoff = 20.000 fft =  64 x   64 x   64  (   29312 waves     7328 per task)

 Ewald parameters:
      energy cutoff =  40.000 fft =  64 x   64 x   64  (   72119 waves    18030 per task)
      Ewald summation: cut radius =   8.553 and   1
                       Mandelung Wigner-Seitz =  1.79174723 (alpha =  2.88828212 rs = 14.85026019)

 technical parameters:
      fixed step: time step =        5.80  ficticious mass =   400000.00
      tolerance =   1.000e-07 (energy)    1.000e-07 (density)    1.000e-04 (ion)
      max iterations =       1000 (   10 inner   100 outer)
      minimizer = Grassmann lmbfgs



     ================== Grassmann lmbfgs iteration ==================
          >>> iteration started at Wed Dec 14 11:47:11 2022  <<<
     iter.                 Energy          DeltaE        DeltaRho
     ----------------------------------------------------------------
        - 10 steepest descent iterations performed
        10      -2.269073088645e+01   -2.935353e-05    1.419678e-07
        20      -2.269076900267e+01   -2.609963e-07    9.946848e-10
        30      -2.269076937263e+01   -7.563384e-08    1.437604e-10
     *** tolerance ok. iteration terminated
          >>> iteration ended at   Wed Dec 14 11:47:32 2022  <<<

     ==============  energy results (Molecule object)  ==============


 number of electrons: spin up=     7.00000  down=     7.00000 (real space)


 total     energy    :   -2.2690769373e+01 (   -4.53815e+00 /ion)
 total orbital energy:   -6.1201254872e+00 (   -8.74304e-01 /electron)
 hartree energy      :    2.6052210347e+01 (    3.72174e+00 /electron)
 exc-corr energy     :   -5.9044120858e+00 (   -8.43487e-01 /electron)
 ion-ion energy      :    7.9267863640e+00 (    1.58536e+00 /ion)

 kinetic (planewave) :    1.1269603129e+01 (    1.60994e+00 /electron)
 V_local (planewave) :   -6.4953108096e+01 (   -9.27902e+00 /electron)
 V_nl    (planewave) :    2.9181509692e+00 (    4.16879e-01 /electron)
 V_Coul  (planewave) :    5.2104420695e+01 (    7.44349e+00 /electron)
 V_xc    (planewave) :   -7.4591921837e+00 (   -1.06560e+00 /electron)
 Viral Coefficient   :   -1.5430648637e+00

 orbital energy:
    -2.5532455e-01 (  -6.948eV)
    -2.5534036e-01 (  -6.948eV)
    -3.7072288e-01 ( -10.088eV)
    -3.9989349e-01 ( -10.882eV)
    -4.0000552e-01 ( -10.885eV)
    -6.0891864e-01 ( -16.570eV)
    -7.6985731e-01 ( -20.949eV)

== Center of Charge ==

spin up    = (    0.2146    -0.4900    -0.0672 )
spin down  = (    0.2146    -0.4900    -0.0672 )
     total = (    0.2146    -0.4900    -0.0672 )
ionic      = (    0.2365    -0.5399    -0.0740 )

== Molecular Dipole wrt Center of Mass ==

mu   = (    0.3062    -0.6987    -0.0955 ) au
|mu| =      0.7688 au (     1.9540 Debye )

 output psi to filename: ./perm/pspw-pbe-ch3cl.movecs

 -----------------
 cputime in seconds
 prologue    : 7.798e-01
 main loop   : 2.042e+01
 epilogue    : 5.843e-02
 total       : 2.125e+01
 cputime/step: 2.402e-01 ( 85 evaluations, 23 linesearches)

 Time spent doing      total        step             percent
 total time            3.853825e+01 4.533912e-01     100.00%
 total FFT time        2.294208e+01 2.699068e-01      59.53%
 lagrange multipliers  1.327377e-01 1.561620e-03       0.34%
 local potentials      6.956485e-03 8.184100e-05       0.02%
 non-local potentials  1.714154e+00 2.016652e-02       4.45%
 ffm_dgemm             1.286613e+00 1.513662e-02       3.34%
 fmf_dgemm             2.693452e+00 3.168768e-02       6.99%
 m_diagonalize         2.847490e-03 3.349988e-05       0.01%
 mmm_multiply          2.436900e-03 2.866941e-05       0.01%

 >>> job completed at     Wed Dec 14 11:47:32 2022 <<<

Running energy calculation - rtdbstr = {"charge":0,"current_task":"task pspw energy","dbname":"pspw-pbe-ch3cl","driver":null,"foundtask":true,"geometries":{"geometry":{"autosym":0,"autoz":0,"center":0,"charges":[6.0,1.0,1.0,1.0,17.0],"conv":1.88972598858,"coords":[0.86174150695632,-1.9672519972614946,-0.26951083076529103,2.8997769705720557,-1.768004958203585,-0.3180692297678427,0.2824289976232239,-3.1373778882941847,1.308729733391079,0.16300398432293364,-2.731347582935909,-2.0368732821327584,-0.49728517334680417,1.135243439009492,0.15552066940815684],"masses":[12.0,1.008,1.008,1.008,34.96885],"nion":5,"symbols":["C","H","H","H","Cl"],"unita":[1.0,0.0,0.0,0.0,1.0,0.0,0.0,0.0,1.0],"velocities":[0.0,0.0,0.0,0.0,0.0,0.0,0.0,0.0,0.0,0.0,0.0,0.0,0.0,0.0,0.0]}},"nwinput_cur":40,"nwinput_lines":["title \"CH3Cl - PBE/30 Ry","","","echo","","start pspw-pbe-ch3cl","","memory 1900 mb","","permanent_dir ./perm","scratch_dir   ./perm","","charge 0","","geometry noautosym nocenter noautoz","C   0.456014 -1.041025 -0.142619","H   1.534496 -0.935588 -0.168315","H   0.149455 -1.660229 0.692550","H   0.086258 -1.445367 -1.077867","Cl   -0.263152 0.600745 0.082298","end","set nwpw:cif_filename  ch3cl","","","nwpw","  simulation_cell","     FCC 38.0","  end","","  ","  ","  cutoff 30.0","  mult 1","  xc pbe96","  lmbfgs grassman ","","  2d-hcurve","end","","task pspw energy",""],"nwinput_nlines":41,"nwpw":{"cutoff":[30.0,60.0],"mapping":3,"minimizer":2,"simulation_cell":{"unita":[19.0,19.0,0.0,19.0,0.0,19.0,0.0,19.0,19.0]},"xc":"pbe96"},"nwpw:cif_filename":"ch3cl","permanent_dir":"./perm","psp_library_dir":"","scratch_dir":"./perm","title":"CH3Cl - PBE/30 Ry"}

          *****************************************************
          *                                                   *
          *               PWDFT PSPW Calculation              *
          *                                                   *
          *  [ (Grassmann/Stiefel manifold implementation) ]  *
          *  [              C++ implementation             ]  *
          *                                                   *
          *              version #7.00   02/27/21             *
          *                                                   *
          *    This code was developed by Eric J. Bylaska,    *
          *    Abhishek Bagusetty, David H. Bross, ...        *
          *                                                   *
          *****************************************************
          >>> job started at       Wed Dec 14 11:47:32 2022 <<<

 psp_library: /Users/bylaska/Codes/PWDFT/Nwpw/libraryps



 writing formatted psp filename: ./perm/C.vpp

 writing formatted psp filename: ./perm/H.vpp

 writing formatted psp filename: ./perm/Cl.vpp
 psi grids are being converted: 
 -----------------------------: 
 converting .... psi:1 spin:1
 converting .... psi:2 spin:1
 converting .... psi:3 spin:1
 converting .... psi:4 spin:1
 converting .... psi:5 spin:1
 converting .... psi:6 spin:1
 converting .... psi:7 spin:1

 input psi exists, reading from file: ./perm/pspw-pbe-ch3cl.movecs

          ==============  summary of input  ==================

 input psi filename: ./perm/pspw-pbe-ch3cl.movecs

 number of processors used: 4
 processor grid           : 4 x1
 parallel mapping         : 2d-hcurve
 parallel mapping         : balanced

 options:
   boundary conditions  = periodic
   electron spin        = restricted
   exchange-correlation = PBE96 (White and Bird) parameterization

 elements involved in the cluster:
      1: C   valence charge =  4.0  lmax =2
             comment = Parameterized (J.Phys.Chem., vol 100, page 6966) Hamman psp 
             pseudopotential type            =  0
             highest angular component       =  2
             local potential used            =  2
             number of non-local projections =  4
             cutoff =    0.800   0.850   0.850
      2: H   valence charge =  1.0  lmax =1
             comment = Parameterized (Chem.Phys.Lett., vol 322, page 447) Hamman psp 
             pseudopotential type            =  0
             highest angular component       =  1
             local potential used            =  1
             number of non-local projections =  1
             cutoff =    0.800   0.800
      3: Cl  valence charge =  7.0  lmax =2
             comment = Troullier-Martins pseudopotential
             pseudopotential type            =  0
             highest angular component       =  2
             local potential used            =  2
             number of non-local projections =  4
             semicore corrections inlcuded   =  1.300 (radius) 0.284 (charge)
             cutoff =    1.340   1.450   1.450

 total charge =   0.000

 atom composition:
   C : 1   H : 3   Cl : 1

 initial ion positions (au):
   1 C	(    0.86174   -1.96725   -0.26951 ) - atomic mass = 12.000
   2 H	(    2.89978   -1.76800   -0.31807 ) - atomic mass =  1.008
   3 H	(    0.28243   -3.13738    1.30873 ) - atomic mass =  1.008
   4 H	(    0.16300   -2.73135   -2.03687 ) - atomic mass =  1.008
   5 Cl	(   -0.49729    1.13524    0.15552 ) - atomic mass = 34.969
   G.C.	(    0.74193   -1.69375   -0.23204 )
 C.O.M.	(   -0.07354    0.16789    0.02300 )

 real space Electric field:
     Electric Field (au) = (   0.00000    0.00000    0.00000 )
             Center (au) = (   0.00000    0.00000    0.00000 )


 number of electrons: spin up =     7 (   7 per task) down =     7 (   7 per task)

 supercell:
      volume =   13718.00
      lattice:    a1 = <   19.000   19.000    0.000 >
                  a2 = <   19.000    0.000   19.000 >
                  a3 = <    0.000   19.000   19.000 >
      reciprocal: b1 = <    0.165    0.165   -0.165 >
                  b2 = <    0.165   -0.165    0.165 >
                  b3 = <   -0.165    0.165    0.165 >
      lattice:    a =      26.870 b =     26.870 c =      26.870
                  alpha =  60.000 beta =  60.000 gamma =  60.000
      density cutoff = 60.000 fft =  80 x   80 x   80  (  136317 waves    34080 per task)
      wavefnc cutoff = 30.000 fft =  80 x   80 x   80  (   53698 waves    13426 per task)

 Ewald parameters:
      energy cutoff =  60.000 fft =  80 x   80 x   80  (  136317 waves    34080 per task)
      Ewald summation: cut radius =   8.553 and   1
                       Mandelung Wigner-Seitz =  1.79174723 (alpha =  2.88828212 rs = 14.85026019)

 technical parameters:
      fixed step: time step =        5.80  ficticious mass =   400000.00
      tolerance =   1.000e-07 (energy)    1.000e-07 (density)    1.000e-04 (ion)
      max iterations =       1000 (   10 inner   100 outer)
      minimizer = Grassmann lmbfgs



     ================== Grassmann lmbfgs iteration ==================
          >>> iteration started at Wed Dec 14 11:47:33 2022  <<<
     iter.                 Energy          DeltaE        DeltaRho
     ----------------------------------------------------------------
        - 10 steepest descent iterations performed
        10      -2.269835398485e+01   -7.865654e-07    7.438109e-09
        20      -2.269835528260e+01   -9.432489e-08    6.011742e-10
     *** tolerance ok. iteration terminated
          >>> iteration ended at   Wed Dec 14 11:48:02 2022  <<<

     ==============  energy results (Molecule object)  ==============


 number of electrons: spin up=     7.00000  down=     7.00000 (real space)


 total     energy    :   -2.2698355283e+01 (   -4.53967e+00 /ion)
 total orbital energy:   -6.1218606212e+00 (   -8.74552e-01 /electron)
 hartree energy      :    2.6058166117e+01 (    3.72260e+00 /electron)
 exc-corr energy     :   -5.9053307585e+00 (   -8.43619e-01 /electron)
 ion-ion energy      :    7.9267863640e+00 (    1.58536e+00 /ion)

 kinetic (planewave) :    1.1264026151e+01 (    1.60915e+00 /electron)
 V_local (planewave) :   -6.4980432710e+01 (   -9.28292e+00 /electron)
 V_nl    (planewave) :    2.9384295530e+00 (    4.19776e-01 /electron)
 V_Coul  (planewave) :    5.2116332235e+01 (    7.44519e+00 /electron)
 V_xc    (planewave) :   -7.4602158503e+00 (   -1.06575e+00 /electron)
 Viral Coefficient   :   -1.5434877848e+00

 orbital energy:
    -2.5522199e-01 (  -6.945eV)
    -2.5523137e-01 (  -6.945eV)
    -3.7078448e-01 ( -10.090eV)
    -4.0020902e-01 ( -10.890eV)
    -4.0021549e-01 ( -10.891eV)
    -6.0909796e-01 ( -16.575eV)
    -7.7016999e-01 ( -20.958eV)

== Center of Charge ==

spin up    = (    0.2147    -0.4902    -0.0672 )
spin down  = (    0.2147    -0.4902    -0.0672 )
     total = (    0.2147    -0.4902    -0.0672 )
ionic      = (    0.2365    -0.5399    -0.0740 )

== Molecular Dipole wrt Center of Mass ==

mu   = (    0.3047    -0.6957    -0.0952 ) au
|mu| =      0.7654 au (     1.9454 Debye )

 output psi to filename: ./perm/pspw-pbe-ch3cl.movecs

 -----------------
 cputime in seconds
 prologue    : 1.333e+00
 main loop   : 2.810e+01
 epilogue    : 9.115e-02
 total       : 2.952e+01
 cputime/step: 4.845e-01 ( 58 evaluations, 15 linesearches)

 Time spent doing      total        step             percent
 total time            6.917784e+01 1.192721e+00     100.00%
 total FFT time        4.166680e+01 7.183931e-01      60.23%
 lagrange multipliers  3.055069e-01 5.267361e-03       0.44%
 local potentials      1.954491e-02 3.369813e-04       0.03%
 non-local potentials  3.104946e+00 5.353356e-02       4.49%
 ffm_dgemm             2.200591e+00 3.794123e-02       3.18%
 fmf_dgemm             4.719369e+00 8.136843e-02       6.82%
 m_diagonalize         3.650696e-03 6.294303e-05       0.01%
 mmm_multiply          3.194627e-03 5.507978e-05       0.00%

 >>> job completed at     Wed Dec 14 11:48:03 2022 <<<

Next rtdbstr={"charge":0,"current_task":"task pspw energy","dbname":"pspw-pbe-ch3cl","driver":null,"foundtask":false,"geometries":{"geometry":{"autosym":0,"autoz":0,"center":0,"charges":[6.0,1.0,1.0,1.0,17.0],"conv":1.88972598858,"coords":[0.86174150695632,-1.9672519972614946,-0.26951083076529103,2.8997769705720557,-1.768004958203585,-0.3180692297678427,0.2824289976232239,-3.1373778882941847,1.308729733391079,0.16300398432293364,-2.731347582935909,-2.0368732821327584,-0.49728517334680417,1.135243439009492,0.15552066940815684],"masses":[12.0,1.008,1.008,1.008,34.96885],"nion":5,"symbols":["C","H","H","H","Cl"],"unita":[1.0,0.0,0.0,0.0,1.0,0.0,0.0,0.0,1.0],"velocities":[0.0,0.0,0.0,0.0,0.0,0.0,0.0,0.0,0.0,0.0,0.0,0.0,0.0,0.0,0.0]}},"geometry":null,"nwinput_cur":41,"nwinput_lines":["title \"CH3Cl - PBE/30 Ry","","","echo","","start pspw-pbe-ch3cl","","memory 1900 mb","","permanent_dir ./perm","scratch_dir   ./perm","","charge 0","","geometry noautosym nocenter noautoz","C   0.456014 -1.041025 -0.142619","H   1.534496 -0.935588 -0.168315","H   0.149455 -1.660229 0.692550","H   0.086258 -1.445367 -1.077867","Cl   -0.263152 0.600745 0.082298","end","set nwpw:cif_filename  ch3cl","","","nwpw","  simulation_cell","     FCC 38.0","  end","","  ","  ","  cutoff 30.0","  mult 1","  xc pbe96","  lmbfgs grassman ","","  2d-hcurve","end","","task pspw energy",""],"nwinput_nlines":41,"nwpw":{"cutoff":[30.0,60.0],"dipole":[0.30470530825166575,-0.695675614636694,-0.09524867538246173],"dipole_magnitude":0.7654294192405974,"initialize_wavefunction":null,"mapping":3,"minimizer":2,"simulation_cell":{"unita":[19.0,19.0,0.0,19.0,0.0,19.0,0.0,19.0,19.0]},"xc":"pbe96"},"nwpw:cif_filename":"ch3cl","permanent_dir":"./perm","psp_library_dir":"","pspw":{"eigenvalues":[-0.2552219923888393,-0.2552313721079076,-0.3707844835482828,-0.40020902341897535,-0.40021548980684096,-0.6090979564515352,-0.7701699928682759],"energies":[-22.698355282597834,-6.121860621181313,26.05816611733973,-5.905330758450473,7.926786364026366,11.26402615148843,-64.9804327100031,2.9384295530008537,52.11633223467946,-7.4602158503473195,0.0,0.0,0.0,0.0,0.0,0.0,0.0,0.0,0.0,0.0,0.0,0.0,0.0,0.0,0.0,0.0,0.0,0.0,0.0,0.0,0.0,0.0,0.0,0.0,0.0,0.0,0.0,0.0,0.0,0.0,0.0,0.0,0.0,0.0,0.0,0.0,0.0,0.0,0.0,0.0,0.0,0.0,0.0,0.0,0.0,0.0,0.0,0.0,0.0,0.0],"energy":-22.698355282597834},"scratch_dir":"./perm","title":"CH3Cl - PBE/30 Ry"}
Next task =0

writing rtdbjson = ./perm/pspw-pbe-ch3cl.json
