 argument  1 = water-dimer.nw
  NWChem w/ OpenMP: maximum threads =    1



============================== echo of input deck ==============================
#nwchem_input  H4O2.nw
#nwchem_output H4O2.out00
#nwchem_done   H4O2.done
#
#mformula = H4O2
#
#mformula_off
#
#transfer_files *.nw *.xyz *.ion_motion *.emotion *.fei *.cif *.hist *.gr meta_*.dat meta.dat *.meta_gaussians *.cube *_epath *_final_epath POWER_SPECTRUM VELOCITY_SPECTRUM VEL_CORRELATION PAIR_DISTRIBUTION *.dipole_powerspectrum *.dipole_correlation
#bad_files md_xs
#
#curdir mymachine:/Projects/Simulations/PathOpt/pspw-pbe-H4O2-mylabel
#
#permdir pspw-pbe-H4O2-mylabel
#deletescratch no
#queuesave no
#
#machine aerosol3
#cputime 18:05:00
#ncpus 32
#queue regular
#

permanent_dir ./perm
scratch_dir   ./perm

title "swnc: e theory=pspw xc=pbe formula=H4O2 charge=0 mult=1"
#machinejob:expert

echo

start pspw-pbe-H4O2-mylabel

memory 1900 mb

charge 0

geometry noautoz nocenter noautosym
O     0.13513   -0.05627    0.09445
H     0.79058    0.37197   -0.48187
H    -0.33549   -0.65246   -0.50563
O     0.02105    0.48666    2.81228
H    -0.73085    1.07786    2.68447
H     0.21349    0.19973    1.90016
end


nwpw
  ### pseudopotential block begin ###
  ### pseudopotential block end   ###
  cutoff 50.0
  mult 1
  xc pbe96
  lmbfgs grassman

  2d-hcurve
end
set nwpw:kbpp_ray    .true.
set nwpw:kbpp_filter .true.
set nwpw:cif_filename H4O2

task pspw energy ignore

task pspw optimize ignore
================================================================================


                                         
                                         


             Northwest Computational Chemistry Package (NWChem) 7.0.1
             --------------------------------------------------------


                    Environmental Molecular Sciences Laboratory
                       Pacific Northwest National Laboratory
                                Richland, WA 99352

                              Copyright (c) 1994-2020
                       Pacific Northwest National Laboratory
                            Battelle Memorial Institute

             NWChem is an open-source computational chemistry package
                        distributed under the terms of the
                      Educational Community License (ECL) 2.0
             A copy of the license is included with this distribution
                              in the LICENSE.TXT file

                                  ACKNOWLEDGMENT
                                  --------------

            This software and its documentation were developed at the
            EMSL at Pacific Northwest National Laboratory, a multiprogram
            national laboratory, operated for the U.S. Department of Energy
            by Battelle under Contract Number DE-AC05-76RL01830. Support
            for this work was provided by the Department of Energy Office
            of Biological and Environmental Research, Office of Basic
            Energy Sciences, and the Office of Advanced Scientific Computing.


           Job information
           ---------------

    hostname        = WE34304
    program         = nwchem
    date            = Tue May 10 11:12:28 2022

    compiled        = Sun_Nov_07_16:28:08_2021
    source          = /Users/bylaska/nwchem-releases/nwchem
    nwchem branch   = 7.0.0
    nwchem revision = nwchem_on_git-2986-g4ee8062ba5
    ga revision     = 5.8.0
    use scalapack   = F
    input           = water-dimer.nw
    prefix          = pspw-pbe-H4O2-mylabel.
    data base       = ./perm/pspw-pbe-H4O2-mylabel.db
    status          = startup
    nproc           =        4
    time left       =     -1s



           Memory information
           ------------------

    heap     =   62259196 doubles =    475.0 Mbytes
    stack    =   62259201 doubles =    475.0 Mbytes
    global   =  124518400 doubles =    950.0 Mbytes (distinct from heap & stack)
    total    =  249036797 doubles =   1900.0 Mbytes
    verify   = yes
    hardfail = no 


           Directory information
           ---------------------

  0 permanent = ./perm
  0 scratch   = ./perm




                                NWChem Input Module
                                -------------------


              swnc: e theory=pspw xc=pbe formula=H4O2 charge=0 mult=1
              -------------------------------------------------------

 Scaling coordinates for geometry "geometry" by  1.889725989
 (inverse scale =  0.529177249)



                             Geometry "geometry" -> ""
                             -------------------------

 Output coordinates in angstroms (scale by  1.889725989 to convert to a.u.)

  No.       Tag          Charge          X              Y              Z
 ---- ---------------- ---------- -------------- -------------- --------------
    1 O                    8.0000     0.13513000    -0.05627000     0.09445000
    2 H                    1.0000     0.79058000     0.37197000    -0.48187000
    3 H                    1.0000    -0.33549000    -0.65246000    -0.50563000
    4 O                    8.0000     0.02105000     0.48666000     2.81228000
    5 H                    1.0000    -0.73085000     1.07786000     2.68447000
    6 H                    1.0000     0.21349000     0.19973000     1.90016000

      Atomic Mass 
      ----------- 

      O                 15.994910
      H                  1.007825


 Effective nuclear repulsion energy (a.u.)      37.2756109723

            Nuclear Dipole moment (a.u.) 
            ----------------------------
        X                 Y               Z
 ---------------- ---------------- ----------------
     2.2434260019     8.3907991290    50.7409758276


            XYZ format geometry
            -------------------
     6
 geometry
 O                     0.13513000    -0.05627000     0.09445000
 H                     0.79058000     0.37197000    -0.48187000
 H                    -0.33549000    -0.65246000    -0.50563000
 O                     0.02105000     0.48666000     2.81228000
 H                    -0.73085000     1.07786000     2.68447000
 H                     0.21349000     0.19973000     1.90016000

 ==============================================================================
                                internuclear distances
 ------------------------------------------------------------------------------
       center one      |      center two      | atomic units |  angstroms
 ------------------------------------------------------------------------------
    2 H                |   1 O                |     1.83717  |     0.97219
    3 H                |   1 O                |     1.82925  |     0.96800
    5 H                |   4 O                |     1.82357  |     0.96499
    6 H                |   4 O                |     1.84316  |     0.97536
 ------------------------------------------------------------------------------
                         number of included internuclear distances:          4
 ==============================================================================



 ==============================================================================
                                 internuclear angles
 ------------------------------------------------------------------------------
        center 1       |       center 2       |       center 3       |  degrees
 ------------------------------------------------------------------------------
    2 H                |   1 O                |   3 H                |   103.39
    5 H                |   4 O                |   6 H                |   102.13
 ------------------------------------------------------------------------------
                            number of included internuclear angles:          2
 ==============================================================================



          ****************************************************
          *                                                  *
          *               NWPW PSPW Calculation              *
          *                                                  *
          * [ (Grassmann/Stiefel manifold implementation)  ] *
          *                                                  *
          *      [ NorthWest Chemistry implementation ]      *
          *                                                  *
          *            version #5.10   06/12/02              *
          *                                                  *
          *    This code was developed by Eric J. Bylaska,   *
          *    and was based upon algorithms and code        *
          *    developed by the group of Prof. John H. Weare *
          *                                                  *
          ****************************************************
     >>>  JOB STARTED       AT Tue May 10 11:12:28 2022  <<<
          ================ input data ========================
  library name resolved from: compiled reference
  NWCHEM_NWPW_LIBRARY set to: </Users/bylaska/nwchem-releases/nwchem/src/nwpw/libraryps/>
 Generating 1d pseudopotential for O   

 Generated formatted_filename: ./perm/O.vpp
 - filtering pseudopotential -
  library name resolved from: compiled reference
  NWCHEM_NWPW_LIBRARY set to: </Users/bylaska/nwchem-releases/nwchem/src/nwpw/libraryps/>
 Generating 1d pseudopotential for H   

 Generated formatted_filename: ./perm/H.vpp
 - filtering pseudopotential -
 random planewave guess, initial psi:pspw-pbe-H4O2-mylabel.movecs                      
 -   spin, nalpha, nbeta:                    1                    8                    0

 input psi filename:./perm/pspw-pbe-H4O2-mylabel.movecs

 Warning - K.S. orbitals are not orthonormal. Applying Gram-Schmidt orthonormalization.
         - exact norm=0.800000E+01 norm=0.554548E+01 corrected norm=0.800000E+01 (error=0.245452E+01)


 number of processors used:         4
 processor grid           :   4 x   1
 parallel mapping         : 2d-hcurve
 parallel mapping         :  balanced
 number of threads        :         1
 parallel io              :       off

 options:
      boundary conditions  = periodic    (version3)
      electron spin        = restricted
      exchange-correlation = PBE96 (White and Bird) parameterization

 elements involved in the cluster:
      1: O   valence charge:  6.0000  lmax=  2
             comment    : Parameterized (Chem.Phys.Lett., vol 322, page 447) Hamman psp
             pseudpotential type            :   0
             highest angular component      :   2
             local potential used           :   2
             number of non-local projections:   4
             cutoff =   0.700   0.700   0.700

      2: H   valence charge:  1.0000  lmax=  1
             comment    : Parameterized (Chem.Phys.Lett., vol 322, page 447) Hamman psp
             pseudpotential type            :   0
             highest angular component      :   1
             local potential used           :   1
             number of non-local projections:   1
             cutoff =   0.800   0.800


 total charge:   0.000

 atomic composition:
     O   :    2     H   :    4

 number of electrons: spin up=     8 (   8 per task)  down=     8 (   8 per task) (Fourier space)
 number of orbitals : spin up=     8 (   8 per task)  down=     8 (   8 per task) (Fourier space)

 supercell:
      cell_name:  cell_default                                      
      lattice:    a1=<  19.000  19.000   0.000 >
                  a2=<  19.000   0.000  19.000 >
                  a3=<   0.000  19.000  19.000 >
      reciprocal: b1=<   0.165   0.165  -0.165 >
                  b2=<   0.165  -0.165   0.165 >
                  b3=<  -0.165   0.165   0.165 >
      lattice:    a=      26.870 b=     26.870 c=      26.870
                  alpha=  60.000 beta=  60.000 gamma=  60.000
                  omega=     13718.0

      density cutoff= 25.000  fft= 50x 50x 50(    34894 waves     8723 per task)
      wavefnc cutoff= 12.500  fft= 50x 50x 50(    14406 waves     3603 per task)
      Ewald summation: cut radius=    8.55  and  1
                       Madelung Wigner-Seitz=    1.79174723 (alpha=    2.88828212 rs=14.85026019)

 technical parameters:
      time step=      5.80     fictitious mass=  400000.0
      tolerance=0.100E-06 (energy)   0.100E-06 (density)
      maximum iterations =      1000 (   10 inner    100 outer )





== Energy Calculation ==


          ============ Grassmann lmbfgs iteration ============
     >>>  ITERATION STARTED AT Tue May 10 11:12:29 2022  <<<
    iter.           Energy         DeltaE       DeltaRho 
    ------------------------------------------------------
     -  15 steepest descent iterations performed
      10   -0.3252079724E+02   -0.25763E+00    0.45817E+01
     -  10 steepest descent iterations performed
      20   -0.3318333947E+02   -0.38529E-02    0.23318E-01
      30   -0.3319044046E+02   -0.52189E-04    0.13562E-03
      40   -0.3319053821E+02   -0.72847E-06    0.15356E-05
      50   -0.3319053917E+02   -0.97702E-07    0.31554E-08
  *** tolerance ok. iteration terminated
     >>>  ITERATION ENDED   AT Tue May 10 11:12:33 2022  <<<


==  Summary Of Results  ==

 number of electrons: spin up=    8.00000  down=    8.00000 (real space)

 total     energy    :  -0.3319053917E+02 (   -0.55318E+01/ion)
 total orbital energy:  -0.8515956477E+01 (   -0.10645E+01/electron)
 hartree   energy    :   0.3797009335E+02 (    0.47463E+01/electron)
 exc-corr  energy    :  -0.8149939994E+01 (   -0.10187E+01/electron)
 ion-ion   energy    :   0.1087703606E+02 (    0.18128E+01/ion)

 kinetic (planewave) :   0.2094709589E+02 (    0.26184E+01/electron)
 V_local (planewave) :  -0.9456946940E+02 (   -0.11821E+02/electron)
 V_nl    (planewave) :  -0.2653550820E+00 (   -0.33169E-01/electron)
 V_Coul  (planewave) :   0.7594018670E+02 (    0.94925E+01/electron)
 V_xc.   (planewave) :  -0.1056841458E+02 (   -0.13211E+01/electron)
 Virial Coefficient  :  -0.1406545925E+01

 orbital energies:
    -0.2315368E+00 (  -6.300eV)
    -0.2810897E+00 (  -7.649eV)
    -0.3216281E+00 (  -8.752eV)
    -0.3925143E+00 ( -10.681eV)
    -0.4633905E+00 ( -12.610eV)
    -0.5046994E+00 ( -13.734eV)
    -0.1005651E+01 ( -27.365eV)
    -0.1057469E+01 ( -28.775eV)

 Total PSPW energy     :  -0.3319053917E+02


=== Spin Contamination ===

 <Sexact^2> =    0.0000000000000000     
 <S^2>      =    0.0000000000000000     



== Center of Charge ==

spin up     (    0.1134,    0.4225,    2.5643 )
spin down   (    0.1134,    0.4225,    2.5643 )
     total  (    0.1134,    0.4225,    2.5643 )
ionic       (    0.1033,    0.4228,    2.4847 )


== Molecular Dipole wrt Center of Mass ==

mu   =  (   -0.1612,    0.0041,   -1.2739 ) au
|mu| =     1.2840 au,       3.2635 Debye

 output psi filename:./perm/pspw-pbe-H4O2-mylabel.movecs

 Writing Crystallographic Information File:./perm/H4O2.cif
   - cell not shifted (nwpw:cif_shift_cell .false.)


== Timing ==

cputime in seconds
  prologue    :   0.620594E+00
  main loop   :   0.490762E+01
  epilogue    :   0.418660E-01
  total       :   0.557008E+01
  cputime/step:   0.398993E-01       (     123 evalulations,      44 linesearches)


Time spent doing                        total          step       percent
  total time                 :   0.557453E+01  0.453214E-01       100.0 %
  i/o time                   :   0.570188E+00  0.463567E-02        10.2 %
  FFTs                       :   0.119865E+01  0.974511E-02        21.5 %
  dot products               :   0.162396E+00  0.132030E-02         2.9 %
  geodesic                   :   0.272481E+00  0.221529E-02         4.9 %
  ffm_dgemm                  :   0.426731E-01  0.346936E-03         0.8 %
  fmf_dgemm                  :   0.171722E+00  0.139612E-02         3.1 %
  mmm_dgemm                  :   0.528981E-02  0.430066E-04         0.1 %
  m_diagonalize              :   0.193796E-02  0.157558E-04         0.0 %
  exchange correlation       :   0.174035E+01  0.141492E-01        31.2 %
  local pseudopotentials     :   0.524000E-03  0.426016E-05         0.0 %
  non-local pseudopotentials :   0.203672E+00  0.165587E-02         3.7 %
  hartree potentials         :   0.194050E-01  0.157764E-03         0.3 %
  ion-ion interaction        :   0.290900E-02  0.236504E-04         0.1 %
  structure factors          :   0.231679E-01  0.188357E-03         0.4 %
  phase factors              :   0.109990E-04  0.894228E-07         0.0 %
  masking and packing        :   0.281215E+00  0.228630E-02         5.0 %
  queue fft                  :   0.183923E+01  0.149531E-01        33.0 %
  queue fft (serial)         :   0.746922E+00  0.607254E-02        13.4 %
  queue fft (message passing):   0.104265E+01  0.847684E-02        18.7 %
  non-local psp FFM          :   0.863181E-01  0.701773E-03         1.5 %
  non-local psp FMF          :   0.976320E-01  0.793756E-03         1.8 %
  non-local psp FFM A        :   0.143113E-01  0.116352E-03         0.3 %
  non-local psp FFM B        :   0.432550E-01  0.351667E-03         0.8 %

     >>>  JOB COMPLETED     AT Tue May 10 11:12:34 2022  <<<
          ****************************************************
          *                                                  *
          *               NWPW PSPW Calculation              *
          *                                                  *
          * [ (Grassmann/Stiefel manifold implementation)  ] *
          *                                                  *
          *      [ NorthWest Chemistry implementation ]      *
          *                                                  *
          *            version #5.10   06/12/02              *
          *                                                  *
          *    This code was developed by Eric J. Bylaska,   *
          *    and was based upon algorithms and code        *
          *    developed by the group of Prof. John H. Weare *
          *                                                  *
          ****************************************************
     >>>  JOB STARTED       AT Tue May 10 11:12:34 2022  <<<
          ================ input data ========================
 pseudopotential is not correctly formatted:O.vpp                                             

 Generated formatted_filename: ./perm/O.vpp
 - filtering pseudopotential -
 pseudopotential is not correctly formatted:H.vpp                                             

 Generated formatted_filename: ./perm/H.vpp
 - filtering pseudopotential -
 Error reading psi - bad grid
 nfft :                   50                   50                   50
 ngrid:                   72                   72                   72
 Error reading psi - bad grid
 nfft :                   50                   50                   50
 ngrid:                   72                   72                   72
 Error reading psi - bad grid

 Grid is being converted:
 ------------------------

 To turn off automatic grid conversion:

 set nwpw:psi_nogrid .false.

 old_filename: pspw-pbe-H4O2-mylabel.movecs                      
 new_filename: pspw-pbe-H4O2-mylabel.movecs                      
 converting  :  50x 50x 50 -->  72x 72x 72
converting .... psi:    1 spin: 1
converting .... psi:    2 spin: 1
converting .... psi:    3 spin: 1
converting .... psi:    4 spin: 1
converting .... psi:    5 spin: 1
converting .... psi:    6 spin: 1
converting .... psi:    7 spin: 1
converting .... psi:    8 spin: 1

 input psi filename:./perm/pspw-pbe-H4O2-mylabel.movecs

 number of processors used:         4
 processor grid           :   4 x   1
 parallel mapping         : 2d-hcurve
 parallel mapping         :  balanced
 number of threads        :         1
 parallel io              :       off

 options:
      boundary conditions  = periodic    (version3)
      electron spin        = restricted
      exchange-correlation = PBE96 (White and Bird) parameterization

 elements involved in the cluster:
      1: O   valence charge:  6.0000  lmax=  2
             comment    : Parameterized (Chem.Phys.Lett., vol 322, page 447) Hamman psp
             pseudpotential type            :   0
             highest angular component      :   2
             local potential used           :   2
             number of non-local projections:   4
             cutoff =   0.700   0.700   0.700

      2: H   valence charge:  1.0000  lmax=  1
             comment    : Parameterized (Chem.Phys.Lett., vol 322, page 447) Hamman psp
             pseudpotential type            :   0
             highest angular component      :   1
             local potential used           :   1
             number of non-local projections:   1
             cutoff =   0.800   0.800


 total charge:   0.000

 atomic composition:
     O   :    2     H   :    4

 number of electrons: spin up=     8 (   8 per task)  down=     8 (   8 per task) (Fourier space)
 number of orbitals : spin up=     8 (   8 per task)  down=     8 (   8 per task) (Fourier space)

 supercell:
      cell_name:  cell_default                                      
      lattice:    a1=<  19.000  19.000   0.000 >
                  a2=<  19.000   0.000  19.000 >
                  a3=<   0.000  19.000  19.000 >
      reciprocal: b1=<   0.165   0.165  -0.165 >
                  b2=<   0.165  -0.165   0.165 >
                  b3=<  -0.165   0.165   0.165 >
      lattice:    a=      26.870 b=     26.870 c=      26.870
                  alpha=  60.000 beta=  60.000 gamma=  60.000
                  omega=     13718.0

      density cutoff= 50.000  fft= 72x 72x 72(   101771 waves    25442 per task)
      wavefnc cutoff= 25.000  fft= 72x 72x 72(    40966 waves    10243 per task)
      Ewald summation: cut radius=    8.55  and  1
                       Madelung Wigner-Seitz=    1.79174723 (alpha=    2.88828212 rs=14.85026019)

 technical parameters:
      time step=      5.80     fictitious mass=  400000.0
      tolerance=0.100E-06 (energy)   0.100E-06 (density)
      maximum iterations =      1000 (   10 inner    100 outer )





== Energy Calculation ==


          ============ Grassmann lmbfgs iteration ============
     >>>  ITERATION STARTED AT Tue May 10 11:12:35 2022  <<<
    iter.           Energy         DeltaE       DeltaRho 
    ------------------------------------------------------
      10   -0.3429253711E+02   -0.42053E-03    0.13185E+00
      20   -0.3429338885E+02   -0.90601E-05    0.39558E-04
      30   -0.3429340835E+02   -0.22344E-06    0.50440E-07
      40   -0.3429340867E+02   -0.68905E-07    0.61902E-09
  *** tolerance ok. iteration terminated
     >>>  ITERATION ENDED   AT Tue May 10 11:12:46 2022  <<<


==  Summary Of Results  ==

 number of electrons: spin up=    8.00000  down=    8.00000 (real space)

 total     energy    :  -0.3429340867E+02 (   -0.57156E+01/ion)
 total orbital energy:  -0.8044608189E+01 (   -0.10056E+01/electron)
 hartree   energy    :   0.3962872575E+02 (    0.49536E+01/electron)
 exc-corr  energy    :  -0.8426456757E+01 (   -0.10533E+01/electron)
 ion-ion   energy    :   0.1087703606E+02 (    0.18128E+01/ion)

 kinetic (planewave) :   0.2430122763E+02 (    0.30377E+01/electron)
 V_local (planewave) :  -0.9843856737E+02 (   -0.12305E+02/electron)
 V_nl    (planewave) :  -0.2235373988E+01 (   -0.27942E+00/electron)
 V_Coul  (planewave) :   0.7925745151E+02 (    0.99072E+01/electron)
 V_xc.   (planewave) :  -0.1092934597E+02 (   -0.13662E+01/electron)
 Virial Coefficient  :  -0.1331037111E+01

 orbital energies:
    -0.2314879E+00 (  -6.299eV)
    -0.2922980E+00 (  -7.954eV)
    -0.3036797E+00 (  -8.264eV)
    -0.3804059E+00 ( -10.351eV)
    -0.4507267E+00 ( -12.265eV)
    -0.5069965E+00 ( -13.796eV)
    -0.8961676E+00 ( -24.386eV)
    -0.9605418E+00 ( -26.138eV)

 Total PSPW energy     :  -0.3429340867E+02


=== Spin Contamination ===

 <Sexact^2> =    0.0000000000000000     
 <S^2>      =    0.0000000000000000     



== Center of Charge ==

spin up     (    0.1161,    0.4224,    2.5855 )
spin down   (    0.1161,    0.4224,    2.5855 )
     total  (    0.1161,    0.4224,    2.5855 )
ionic       (    0.1033,    0.4228,    2.4847 )


== Molecular Dipole wrt Center of Mass ==

mu   =  (   -0.2048,    0.0061,   -1.6131 ) au
|mu| =     1.6261 au,       4.1329 Debye

 output psi filename:./perm/pspw-pbe-H4O2-mylabel.movecs

 Writing Crystallographic Information File:./perm/H4O2.cif
   - cell not shifted (nwpw:cif_shift_cell .false.)


== Timing ==

cputime in seconds
  prologue    :   0.128940E+01
  main loop   :   0.109420E+02
  epilogue    :   0.919520E-01
  total       :   0.123233E+02
  cputime/step:   0.147864E+00       (      74 evalulations,      33 linesearches)


Time spent doing                        total          step       percent
  total time                 :   0.123304E+02  0.166627E+00       100.0 %
  i/o time                   :   0.113754E+01  0.153722E-01         9.2 %
  FFTs                       :   0.277905E+01  0.375547E-01        22.5 %
  dot products               :   0.312529E+00  0.422337E-02         2.5 %
  geodesic                   :   0.603234E+00  0.815181E-02         4.9 %
  ffm_dgemm                  :   0.644061E-01  0.870352E-03         0.5 %
  fmf_dgemm                  :   0.434095E+00  0.586614E-02         3.5 %
  mmm_dgemm                  :   0.111900E-01  0.151216E-03         0.1 %
  m_diagonalize              :   0.168398E-02  0.227565E-04         0.0 %
  exchange correlation       :   0.392252E+01  0.530071E-01        31.8 %
  local pseudopotentials     :   0.227400E-02  0.307297E-04         0.0 %
  non-local pseudopotentials :   0.470682E+00  0.636057E-02         3.8 %
  hartree potentials         :   0.383900E-01  0.518784E-03         0.3 %
  ion-ion interaction        :   0.706100E-02  0.954189E-04         0.1 %
  structure factors          :   0.534974E-01  0.722938E-03         0.4 %
  phase factors              :   0.179990E-04  0.243230E-06         0.0 %
  masking and packing        :   0.556930E+00  0.752608E-02         4.5 %
  queue fft                  :   0.412221E+01  0.557056E-01        33.4 %
  queue fft (serial)         :   0.148996E+01  0.201346E-01        12.1 %
  queue fft (message passing):   0.251439E+01  0.339782E-01        20.4 %
  non-local psp FFM          :   0.179297E+00  0.242293E-02         1.5 %
  non-local psp FMF          :   0.228409E+00  0.308661E-02         1.9 %
  non-local psp FFM A        :   0.326106E-01  0.440684E-03         0.3 %
  non-local psp FFM B        :   0.101398E+00  0.137024E-02         0.8 %

     >>>  JOB COMPLETED     AT Tue May 10 11:12:46 2022  <<<
          ****************************************************
          *                                                  *
          *               NWPW PSPW Calculation              *
          *                                                  *
          * [ (Grassmann/Stiefel manifold implementation)  ] *
          *                                                  *
          *      [ NorthWest Chemistry implementation ]      *
          *                                                  *
          *            version #5.10   06/12/02              *
          *                                                  *
          *    This code was developed by Eric J. Bylaska,   *
          *    and was based upon algorithms and code        *
          *    developed by the group of Prof. John H. Weare *
          *                                                  *
          ****************************************************
     >>>  JOB STARTED       AT Tue May 10 11:12:46 2022  <<<
          ================ input data ========================
 pseudopotential is not correctly formatted:O.vpp                                             

 Generated formatted_filename: ./perm/O.vpp
 - filtering pseudopotential -
 pseudopotential is not correctly formatted:H.vpp                                             

 Generated formatted_filename: ./perm/H.vpp
 - filtering pseudopotential -
 Error reading psi - bad grid
 nfft :                   72                   72                   72
 ngrid:                   90                   90                   90
 Error reading psi - bad grid
 nfft :                   72                   72                   72
 ngrid:                   90                   90                   90
 Error reading psi - bad grid

 Grid is being converted:
 ------------------------

 To turn off automatic grid conversion:

 set nwpw:psi_nogrid .false.

 old_filename: pspw-pbe-H4O2-mylabel.movecs                      
 new_filename: pspw-pbe-H4O2-mylabel.movecs                      
 converting  :  72x 72x 72 -->  90x 90x 90
converting .... psi:    1 spin: 1
converting .... psi:    2 spin: 1
converting .... psi:    3 spin: 1
converting .... psi:    4 spin: 1
converting .... psi:    5 spin: 1
converting .... psi:    6 spin: 1
converting .... psi:    7 spin: 1
converting .... psi:    8 spin: 1

 input psi filename:./perm/pspw-pbe-H4O2-mylabel.movecs

 number of processors used:         4
 processor grid           :   4 x   1
 parallel mapping         : 2d-hcurve
 parallel mapping         :  balanced
 number of threads        :         1
 parallel io              :       off

 options:
      boundary conditions  = periodic    (version3)
      electron spin        = restricted
      exchange-correlation = PBE96 (White and Bird) parameterization

 elements involved in the cluster:
      1: O   valence charge:  6.0000  lmax=  2
             comment    : Parameterized (Chem.Phys.Lett., vol 322, page 447) Hamman psp
             pseudpotential type            :   0
             highest angular component      :   2
             local potential used           :   2
             number of non-local projections:   4
             cutoff =   0.700   0.700   0.700

      2: H   valence charge:  1.0000  lmax=  1
             comment    : Parameterized (Chem.Phys.Lett., vol 322, page 447) Hamman psp
             pseudpotential type            :   0
             highest angular component      :   1
             local potential used           :   1
             number of non-local projections:   1
             cutoff =   0.800   0.800


 total charge:   0.000

 atomic composition:
     O   :    2     H   :    4

 number of electrons: spin up=     8 (   8 per task)  down=     8 (   8 per task) (Fourier space)
 number of orbitals : spin up=     8 (   8 per task)  down=     8 (   8 per task) (Fourier space)

 supercell:
      cell_name:  cell_default                                      
      lattice:    a1=<  19.000  19.000   0.000 >
                  a2=<  19.000   0.000  19.000 >
                  a3=<   0.000  19.000  19.000 >
      reciprocal: b1=<   0.165   0.165  -0.165 >
                  b2=<   0.165  -0.165   0.165 >
                  b3=<  -0.165   0.165   0.165 >
      lattice:    a=      26.870 b=     26.870 c=      26.870
                  alpha=  60.000 beta=  60.000 gamma=  60.000
                  omega=     13718.0

      density cutoff= 75.000  fft= 90x 90x 90(   192337 waves    48084 per task)
      wavefnc cutoff= 37.500  fft= 90x 90x 90(    75079 waves    18772 per task)
      Ewald summation: cut radius=    8.55  and  1
                       Madelung Wigner-Seitz=    1.79174723 (alpha=    2.88828212 rs=14.85026019)

 technical parameters:
      time step=      5.80     fictitious mass=  400000.0
      tolerance=0.100E-06 (energy)   0.100E-06 (density)
      maximum iterations =      1000 (   10 inner    100 outer )





== Energy Calculation ==


          ============ Grassmann lmbfgs iteration ============
     >>>  ITERATION STARTED AT Tue May 10 11:12:49 2022  <<<
    iter.           Energy         DeltaE       DeltaRho 
    ------------------------------------------------------
      10   -0.3432313597E+02   -0.31850E-05    0.45779E-03
      20   -0.3432314291E+02   -0.11460E-06    0.32706E-06
      30   -0.3432314299E+02   -0.83126E-07    0.25742E-09
  *** tolerance ok. iteration terminated
     >>>  ITERATION ENDED   AT Tue May 10 11:13:05 2022  <<<


==  Summary Of Results  ==

 number of electrons: spin up=    8.00000  down=    8.00000 (real space)

 total     energy    :  -0.3432314299E+02 (   -0.57205E+01/ion)
 total orbital energy:  -0.8015296620E+01 (   -0.10019E+01/electron)
 hartree   energy    :   0.3968813356E+02 (    0.49610E+01/electron)
 exc-corr  energy    :  -0.8433227098E+01 (   -0.10542E+01/electron)
 ion-ion   energy    :   0.1087703606E+02 (    0.18128E+01/ion)

 kinetic (planewave) :   0.2440778989E+02 (    0.30510E+01/electron)
 V_local (planewave) :  -0.9855463817E+02 (   -0.12319E+02/electron)
 V_nl    (planewave) :  -0.2308237240E+01 (   -0.28853E+00/electron)
 V_Coul  (planewave) :   0.7937626713E+02 (    0.99220E+01/electron)
 V_xc.   (planewave) :  -0.1093647823E+02 (   -0.13671E+01/electron)
 Virial Coefficient  :  -0.1328390922E+01

 orbital energies:
    -0.2298567E+00 (  -6.255eV)
    -0.2912107E+00 (  -7.924eV)
    -0.3019659E+00 (  -8.217eV)
    -0.3788293E+00 ( -10.309eV)
    -0.4493537E+00 ( -12.228eV)
    -0.5064525E+00 ( -13.781eV)
    -0.8924871E+00 ( -24.286eV)
    -0.9574926E+00 ( -26.055eV)

 Total PSPW energy     :  -0.3432314299E+02


=== Spin Contamination ===

 <Sexact^2> =    0.0000000000000000     
 <S^2>      =    0.0000000000000000     



== Center of Charge ==

spin up     (    0.1162,    0.4224,    2.5859 )
spin down   (    0.1162,    0.4224,    2.5859 )
     total  (    0.1162,    0.4224,    2.5859 )
ionic       (    0.1033,    0.4228,    2.4847 )


== Molecular Dipole wrt Center of Mass ==

mu   =  (   -0.2058,    0.0062,   -1.6185 ) au
|mu| =     1.6316 au,       4.1468 Debye

 output psi filename:./perm/pspw-pbe-H4O2-mylabel.movecs

 Writing Crystallographic Information File:./perm/H4O2.cif
   - cell not shifted (nwpw:cif_shift_cell .false.)


== Timing ==

cputime in seconds
  prologue    :   0.285838E+01
  main loop   :   0.160161E+02
  epilogue    :   0.165291E+00
  total       :   0.190398E+02
  cputime/step:   0.326859E+00       (      49 evalulations,      21 linesearches)


Time spent doing                        total          step       percent
  total time                 :   0.190436E+02  0.388646E+00       100.0 %
  i/o time                   :   0.252443E+01  0.515189E-01        13.3 %
  FFTs                       :   0.429136E+01  0.875788E-01        22.5 %
  dot products               :   0.370694E+00  0.756518E-02         1.9 %
  geodesic                   :   0.722018E+00  0.147351E-01         3.8 %
  ffm_dgemm                  :   0.779640E-01  0.159110E-02         0.4 %
  fmf_dgemm                  :   0.582408E+00  0.118859E-01         3.1 %
  mmm_dgemm                  :   0.936800E-02  0.191184E-03         0.0 %
  m_diagonalize              :   0.132698E-02  0.270813E-04         0.0 %
  exchange correlation       :   0.577473E+01  0.117852E+00        30.3 %
  local pseudopotentials     :   0.646000E-02  0.131837E-03         0.0 %
  non-local pseudopotentials :   0.773118E+00  0.157779E-01         4.1 %
  hartree potentials         :   0.479270E-01  0.978102E-03         0.3 %
  ion-ion interaction        :   0.154390E-01  0.315082E-03         0.1 %
  structure factors          :   0.881887E-01  0.179977E-02         0.5 %
  phase factors              :   0.200000E-04  0.408163E-06         0.0 %
  masking and packing        :   0.816420E+00  0.166616E-01         4.3 %
  queue fft                  :   0.606019E+01  0.123677E+00        31.8 %
  queue fft (serial)         :   0.218494E+01  0.445906E-01        11.5 %
  queue fft (message passing):   0.371237E+01  0.757626E-01        19.5 %
  non-local psp FFM          :   0.250284E+00  0.510784E-02         1.3 %
  non-local psp FMF          :   0.407390E+00  0.831408E-02         2.1 %
  non-local psp FFM A        :   0.449078E-01  0.916485E-03         0.2 %
  non-local psp FFM B        :   0.148256E+00  0.302563E-02         0.8 %

     >>>  JOB COMPLETED     AT Tue May 10 11:13:05 2022  <<<
          ****************************************************
          *                                                  *
          *               NWPW PSPW Calculation              *
          *                                                  *
          * [ (Grassmann/Stiefel manifold implementation)  ] *
          *                                                  *
          *      [ NorthWest Chemistry implementation ]      *
          *                                                  *
          *            version #5.10   06/12/02              *
          *                                                  *
          *    This code was developed by Eric J. Bylaska,   *
          *    and was based upon algorithms and code        *
          *    developed by the group of Prof. John H. Weare *
          *                                                  *
          ****************************************************
     >>>  JOB STARTED       AT Tue May 10 11:13:05 2022  <<<
          ================ input data ========================
 pseudopotential is not correctly formatted:O.vpp                                             

 Generated formatted_filename: ./perm/O.vpp
 - filtering pseudopotential -
 pseudopotential is not correctly formatted:H.vpp                                             

 Generated formatted_filename: ./perm/H.vpp
 - filtering pseudopotential -
 Error reading psi - bad grid
 nfft :                   90                   90                   90
 ngrid:                  100                  100                  100
 Error reading psi - bad grid
 nfft :                   90                   90                   90
 ngrid:                  100                  100                  100
 Error reading psi - bad grid

 Grid is being converted:
 ------------------------

 To turn off automatic grid conversion:

 set nwpw:psi_nogrid .false.

 old_filename: pspw-pbe-H4O2-mylabel.movecs                      
 new_filename: pspw-pbe-H4O2-mylabel.movecs                      
 converting  :  90x 90x 90 --> 100x100x100
converting .... psi:    1 spin: 1
converting .... psi:    2 spin: 1
converting .... psi:    3 spin: 1
converting .... psi:    4 spin: 1
converting .... psi:    5 spin: 1
converting .... psi:    6 spin: 1
converting .... psi:    7 spin: 1
converting .... psi:    8 spin: 1

 input psi filename:./perm/pspw-pbe-H4O2-mylabel.movecs

 number of processors used:         4
 processor grid           :   4 x   1
 parallel mapping         : 2d-hcurve
 parallel mapping         :  balanced
 number of threads        :         1
 parallel io              :       off

 options:
      boundary conditions  = periodic    (version3)
      electron spin        = restricted
      exchange-correlation = PBE96 (White and Bird) parameterization

 elements involved in the cluster:
      1: O   valence charge:  6.0000  lmax=  2
             comment    : Parameterized (Chem.Phys.Lett., vol 322, page 447) Hamman psp
             pseudpotential type            :   0
             highest angular component      :   2
             local potential used           :   2
             number of non-local projections:   4
             cutoff =   0.700   0.700   0.700

      2: H   valence charge:  1.0000  lmax=  1
             comment    : Parameterized (Chem.Phys.Lett., vol 322, page 447) Hamman psp
             pseudpotential type            :   0
             highest angular component      :   1
             local potential used           :   1
             number of non-local projections:   1
             cutoff =   0.800   0.800


 total charge:   0.000

 atomic composition:
     O   :    2     H   :    4

 number of electrons: spin up=     8 (   8 per task)  down=     8 (   8 per task) (Fourier space)
 number of orbitals : spin up=     8 (   8 per task)  down=     8 (   8 per task) (Fourier space)

 supercell:
      cell_name:  cell_default                                      
      lattice:    a1=<  19.000  19.000   0.000 >
                  a2=<  19.000   0.000  19.000 >
                  a3=<   0.000  19.000  19.000 >
      reciprocal: b1=<   0.165   0.165  -0.165 >
                  b2=<   0.165  -0.165   0.165 >
                  b3=<  -0.165   0.165   0.165 >
      lattice:    a=      26.870 b=     26.870 c=      26.870
                  alpha=  60.000 beta=  60.000 gamma=  60.000
                  omega=     13718.0

      density cutoff=100.000  fft=100x100x100(   282860 waves    70715 per task)
      wavefnc cutoff= 50.000  fft=100x100x100(   115733 waves    28934 per task)
      Ewald summation: cut radius=    8.55  and  1
                       Madelung Wigner-Seitz=    1.79174723 (alpha=    2.88828212 rs=14.85026019)

 technical parameters:
      time step=      5.80     fictitious mass=  400000.0
      tolerance=0.100E-06 (energy)   0.100E-06 (density)
      maximum iterations =      1000 (   10 inner    100 outer )





== Energy Calculation ==


          ============ Grassmann lmbfgs iteration ============
     >>>  ITERATION STARTED AT Tue May 10 11:13:09 2022  <<<
    iter.           Energy         DeltaE       DeltaRho 
    ------------------------------------------------------
      10   -0.3434441131E+02   -0.64322E-06    0.51153E-03
      20   -0.3434441257E+02   -0.94891E-07    0.32137E-07
  *** tolerance ok. iteration terminated
     >>>  ITERATION ENDED   AT Tue May 10 11:13:27 2022  <<<


==  Summary Of Results  ==

 number of electrons: spin up=    8.00000  down=    8.00000 (real space)

 total     energy    :  -0.3434441257E+02 (   -0.57241E+01/ion)
 total orbital energy:  -0.8008567627E+01 (   -0.10011E+01/electron)
 hartree   energy    :   0.3971772039E+02 (    0.49647E+01/electron)
 exc-corr  energy    :  -0.8441394702E+01 (   -0.10552E+01/electron)
 ion-ion   energy    :   0.1087703606E+02 (    0.18128E+01/ion)

 kinetic (planewave) :   0.2447660582E+02 (    0.30596E+01/electron)
 V_local (planewave) :  -0.9862504563E+02 (   -0.12328E+02/electron)
 V_nl    (planewave) :  -0.2349334516E+01 (   -0.29367E+00/electron)
 V_Coul  (planewave) :   0.7943544078E+02 (    0.99294E+01/electron)
 V_xc.   (planewave) :  -0.1094623408E+02 (   -0.13683E+01/electron)
 Virial Coefficient  :  -0.1327192736E+01

 orbital energies:
    -0.2299195E+00 (  -6.256eV)
    -0.2915776E+00 (  -7.934eV)
    -0.3017542E+00 (  -8.211eV)
    -0.3787053E+00 ( -10.305eV)
    -0.4492481E+00 ( -12.225eV)
    -0.5066280E+00 ( -13.786eV)
    -0.8906020E+00 ( -24.235eV)
    -0.9558492E+00 ( -26.010eV)

 Total PSPW energy     :  -0.3434441257E+02


=== Spin Contamination ===

 <Sexact^2> =    0.0000000000000000     
 <S^2>      =    0.0000000000000000     



== Center of Charge ==

spin up     (    0.1162,    0.4224,    2.5862 )
spin down   (    0.1162,    0.4224,    2.5862 )
     total  (    0.1162,    0.4224,    2.5862 )
ionic       (    0.1033,    0.4228,    2.4847 )


== Molecular Dipole wrt Center of Mass ==

mu   =  (   -0.2066,    0.0064,   -1.6243 ) au
|mu| =     1.6374 au,       4.1617 Debye

 output psi filename:./perm/pspw-pbe-H4O2-mylabel.movecs

 Writing Crystallographic Information File:./perm/H4O2.cif
   - cell not shifted (nwpw:cif_shift_cell .false.)


== Timing ==

cputime in seconds
  prologue    :   0.411955E+01
  main loop   :   0.184701E+02
  epilogue    :   0.214056E+00
  total       :   0.228037E+02
  cputime/step:   0.486056E+00       (      38 evalulations,      16 linesearches)


Time spent doing                        total          step       percent
  total time                 :   0.228076E+02  0.600199E+00       100.0 %
  i/o time                   :   0.368006E+01  0.968436E-01        16.1 %
  FFTs                       :   0.480423E+01  0.126427E+00        21.1 %
  dot products               :   0.467684E+00  0.123075E-01         2.1 %
  geodesic                   :   0.937628E+00  0.246744E-01         4.1 %
  ffm_dgemm                  :   0.909270E-01  0.239282E-02         0.4 %
  fmf_dgemm                  :   0.782948E+00  0.206039E-01         3.4 %
  mmm_dgemm                  :   0.104990E-01  0.276289E-03         0.0 %
  m_diagonalize              :   0.107599E-02  0.283155E-04         0.0 %
  exchange correlation       :   0.640431E+01  0.168534E+00        28.1 %
  local pseudopotentials     :   0.959000E-02  0.252368E-03         0.0 %
  non-local pseudopotentials :   0.108311E+01  0.285029E-01         4.7 %
  hartree potentials         :   0.563750E-01  0.148355E-02         0.2 %
  ion-ion interaction        :   0.149400E-01  0.393158E-03         0.1 %
  structure factors          :   0.114381E+00  0.301002E-02         0.5 %
  phase factors              :   0.200000E-04  0.526316E-06         0.0 %
  masking and packing        :   0.934135E+00  0.245825E-01         4.1 %
  queue fft                  :   0.692557E+01  0.182252E+00        30.4 %
  queue fft (serial)         :   0.251386E+01  0.661541E-01        11.0 %
  queue fft (message passing):   0.423268E+01  0.111386E+00        18.6 %
  non-local psp FFM          :   0.343383E+00  0.903640E-02         1.5 %
  non-local psp FMF          :   0.582657E+00  0.153331E-01         2.6 %
  non-local psp FFM A        :   0.635578E-01  0.167257E-02         0.3 %
  non-local psp FFM B        :   0.203105E+00  0.534487E-02         0.9 %

     >>>  JOB COMPLETED     AT Tue May 10 11:13:28 2022  <<<

 Task  times  cpu:       59.8s     wall:       59.8s


                                NWChem Input Module
                                -------------------




                           NWChem Geometry Optimization
                           ----------------------------




              swnc: e theory=pspw xc=pbe formula=H4O2 charge=0 mult=1


 maximum gradient threshold         (gmax) =   0.000450
 rms gradient threshold             (grms) =   0.000300
 maximum cartesian step threshold   (xmax) =   0.001800
 rms cartesian step threshold       (xrms) =   0.001200
 fixed trust radius                (trust) =   0.300000
 maximum step size to saddle      (sadstp) =   0.100000
 energy precision                  (eprec) =   1.0D-07
 maximum number of steps          (nptopt) =   40
 initial hessian option           (inhess) =    0
 line search option               (linopt) =    1
 hessian update option            (modupd) =    1
 saddle point option              (modsad) =    0
 initial eigen-mode to follow     (moddir) =    0
 initial variable to follow       (vardir) =    0
 follow first negative mode     (firstneg) =    T
 apply conjugacy                    (opcg) =    F
 source of zmatrix                         =           


          -------------------
          Energy Minimization
          -------------------


 Using diagonal initial Hessian 

          --------
          Step   0
          --------


                         Geometry "geometry" -> "geometry"
                         ---------------------------------

 Output coordinates in angstroms (scale by  1.889725989 to convert to a.u.)

  No.       Tag          Charge          X              Y              Z
 ---- ---------------- ---------- -------------- -------------- --------------
    1 O                    8.0000     0.13513000    -0.05627000     0.09445000
    2 H                    1.0000     0.79058000     0.37197000    -0.48187000
    3 H                    1.0000    -0.33549000    -0.65246000    -0.50563000
    4 O                    8.0000     0.02105000     0.48666000     2.81228000
    5 H                    1.0000    -0.73085000     1.07786000     2.68447000
    6 H                    1.0000     0.21349000     0.19973000     1.90016000

      Atomic Mass 
      ----------- 

      O                 15.994910
      H                  1.007825


 Effective nuclear repulsion energy (a.u.)      37.2756109723

            Nuclear Dipole moment (a.u.) 
            ----------------------------
        X                 Y               Z
 ---------------- ---------------- ----------------
     2.2434260019     8.3907991290    50.7409758276

          ****************************************************
          *                                                  *
          *               NWPW PSPW Calculation              *
          *                                                  *
          * [ (Grassmann/Stiefel manifold implementation)  ] *
          *                                                  *
          *      [ NorthWest Chemistry implementation ]      *
          *                                                  *
          *            version #5.10   06/12/02              *
          *                                                  *
          *    This code was developed by Eric J. Bylaska,   *
          *    and was based upon algorithms and code        *
          *    developed by the group of Prof. John H. Weare *
          *                                                  *
          ****************************************************
     >>>  JOB STARTED       AT Tue May 10 11:13:28 2022  <<<
          ================ input data ========================

 input psi filename:./perm/pspw-pbe-H4O2-mylabel.movecs

 number of processors used:         4
 processor grid           :   4 x   1
 parallel mapping         : 2d-hcurve
 parallel mapping         :  balanced
 number of threads        :         1
 parallel io              :       off

 options:
      boundary conditions  = periodic    (version3)
      electron spin        = restricted
      exchange-correlation = PBE96 (White and Bird) parameterization

 elements involved in the cluster:
      1: O   valence charge:  6.0000  lmax=  2
             comment    : Parameterized (Chem.Phys.Lett., vol 322, page 447) Hamman psp
             pseudpotential type            :   0
             highest angular component      :   2
             local potential used           :   2
             number of non-local projections:   4
             cutoff =   0.700   0.700   0.700

      2: H   valence charge:  1.0000  lmax=  1
             comment    : Parameterized (Chem.Phys.Lett., vol 322, page 447) Hamman psp
             pseudpotential type            :   0
             highest angular component      :   1
             local potential used           :   1
             number of non-local projections:   1
             cutoff =   0.800   0.800


 total charge:   0.000

 atomic composition:
     O   :    2     H   :    4

 number of electrons: spin up=     8 (   8 per task)  down=     8 (   8 per task) (Fourier space)
 number of orbitals : spin up=     8 (   8 per task)  down=     8 (   8 per task) (Fourier space)

 supercell:
      cell_name:  cell_default                                      
      lattice:    a1=<  19.000  19.000   0.000 >
                  a2=<  19.000   0.000  19.000 >
                  a3=<   0.000  19.000  19.000 >
      reciprocal: b1=<   0.165   0.165  -0.165 >
                  b2=<   0.165  -0.165   0.165 >
                  b3=<  -0.165   0.165   0.165 >
      lattice:    a=      26.870 b=     26.870 c=      26.870
                  alpha=  60.000 beta=  60.000 gamma=  60.000
                  omega=     13718.0

      density cutoff=100.000  fft=100x100x100(   282860 waves    70715 per task)
      wavefnc cutoff= 50.000  fft=100x100x100(   115733 waves    28934 per task)
      Ewald summation: cut radius=    8.55  and  1
                       Madelung Wigner-Seitz=    1.79174723 (alpha=    2.88828212 rs=14.85026019)

 technical parameters:
      time step=      5.80     fictitious mass=  400000.0
      tolerance=0.100E-06 (energy)   0.100E-06 (density)
      maximum iterations =      1000 (   10 inner    100 outer )





== Energy Calculation ==


          ============ Grassmann lmbfgs iteration ============
     >>>  ITERATION STARTED AT Tue May 10 11:13:28 2022  <<<
    iter.           Energy         DeltaE       DeltaRho 
    ------------------------------------------------------
      10   -0.3434441261E+02   -0.40459E-07    0.36064E-10
  *** tolerance ok. iteration terminated
     >>>  ITERATION ENDED   AT Tue May 10 11:13:30 2022  <<<


==  Summary Of Results  ==

 number of electrons: spin up=    8.00000  down=    8.00000 (real space)

 total     energy    :  -0.3434441261E+02 (   -0.57241E+01/ion)
 total orbital energy:  -0.8008543155E+01 (   -0.10011E+01/electron)
 hartree   energy    :   0.3971774610E+02 (    0.49647E+01/electron)
 exc-corr  energy    :  -0.8441398450E+01 (   -0.10552E+01/electron)
 ion-ion   energy    :   0.1087703606E+02 (    0.18128E+01/ion)

 kinetic (planewave) :   0.2447662281E+02 (    0.30596E+01/electron)
 V_local (planewave) :  -0.9862508444E+02 (   -0.12328E+02/electron)
 V_nl    (planewave) :  -0.2349334699E+01 (   -0.29367E+00/electron)
 V_Coul  (planewave) :   0.7943549220E+02 (    0.99294E+01/electron)
 V_xc.   (planewave) :  -0.1094623903E+02 (   -0.13683E+01/electron)
 Virial Coefficient  :  -0.1327191509E+01

 orbital energies:
    -0.2299176E+00 (  -6.256eV)
    -0.2915760E+00 (  -7.934eV)
    -0.3017524E+00 (  -8.211eV)
    -0.3787039E+00 ( -10.305eV)
    -0.4492467E+00 ( -12.225eV)
    -0.5066270E+00 ( -13.786eV)
    -0.8906002E+00 ( -24.235eV)
    -0.9558477E+00 ( -26.010eV)

 Total PSPW energy     :  -0.3434441261E+02


=== Spin Contamination ===

 <Sexact^2> =    0.0000000000000000     
 <S^2>      =    0.0000000000000000     



== Center of Charge ==

spin up     (    0.1162,    0.4224,    2.5862 )
spin down   (    0.1162,    0.4224,    2.5862 )
     total  (    0.1162,    0.4224,    2.5862 )
ionic       (    0.1033,    0.4228,    2.4847 )


== Molecular Dipole wrt Center of Mass ==

mu   =  (   -0.2066,    0.0064,   -1.6243 ) au
|mu| =     1.6374 au,       4.1617 Debye


Translation force removed: (   -0.00055    0.00140   -0.01536)


          =============  Ion Gradients =================
 Ion Forces:
        1 O    (    0.007490   -0.003129   -0.014109 )
        2 H    (   -0.011435   -0.008739    0.028276 )
        3 H    (    0.007015    0.007072    0.027801 )
        4 O    (   -0.007985    0.004361    0.000910 )
        5 H    (    0.012079   -0.010161    0.019180 )
        6 H    (   -0.003700    0.001978    0.030306 )
        C.O.M. (   -0.000000    0.000000    0.000000 )
          ===============================================
          |F|       =   0.614851E-01
          |F|/nion  =   0.102475E-01
          max|Fatom|=   0.317275E-01 (   1.632eV/Angstrom)



 output psi filename:./perm/pspw-pbe-H4O2-mylabel.movecs

 Writing Crystallographic Information File:./perm/H4O2.cif
   - cell not shifted (nwpw:cif_shift_cell .false.)


== Timing ==

cputime in seconds
  prologue    :   0.379055E+00
  main loop   :   0.248459E+01
  epilogue    :   0.242087E+00
  total       :   0.310573E+01
  cputime/step:   0.496917E+00       (       5 evalulations,       1 linesearches)


Time spent doing                        total          step       percent
  total time                 :   0.311003E+01  0.622006E+00       100.0 %
  i/o time                   :   0.446815E+00  0.893630E-01        14.4 %
  FFTs                       :   0.628417E+00  0.125683E+00        20.2 %
  dot products               :   0.821138E-01  0.164228E-01         2.6 %
  geodesic                   :   0.560950E-01  0.112190E-01         1.8 %
  ffm_dgemm                  :   0.666400E-02  0.133280E-02         0.2 %
  fmf_dgemm                  :   0.516570E-01  0.103314E-01         1.7 %
  mmm_dgemm                  :   0.154000E-03  0.308000E-04         0.0 %
  m_diagonalize              :   0.110999E-03  0.221998E-04         0.0 %
  exchange correlation       :   0.821425E+00  0.164285E+00        26.4 %
  local pseudopotentials     :   0.241320E-01  0.482640E-02         0.8 %
  non-local pseudopotentials :   0.188096E+00  0.376192E-01         6.0 %
  hartree potentials         :   0.835400E-02  0.167080E-02         0.3 %
  ion-ion interaction        :   0.250670E-01  0.501340E-02         0.8 %
  structure factors          :   0.329620E-01  0.659239E-02         1.1 %
  phase factors              :   0.210000E-04  0.420000E-05         0.0 %
  masking and packing        :   0.157621E+00  0.315242E-01         5.1 %
  queue fft                  :   0.929619E+00  0.185924E+00        29.9 %
  queue fft (serial)         :   0.347807E+00  0.695614E-01        11.2 %
  queue fft (message passing):   0.558372E+00  0.111674E+00        18.0 %
  non-local psp FFM          :   0.430110E-01  0.860220E-02         1.4 %
  non-local psp FMF          :   0.788100E-01  0.157620E-01         2.5 %
  non-local psp FFM A        :   0.850998E-02  0.170200E-02         0.3 %
  non-local psp FFM B        :   0.259220E-01  0.518440E-02         0.8 %

     >>>  JOB COMPLETED     AT Tue May 10 11:13:31 2022  <<<

@ Step       Energy      Delta E   Gmax     Grms     Xrms     Xmax   Walltime
@ ---- ---------------- -------- -------- -------- -------- -------- --------
@    0     -34.34441261  0.0D+00  0.03031  0.01449  0.00000  0.00000     62.9
                                                                    

          ****************************************************
          *                                                  *
          *               NWPW PSPW Calculation              *
          *                                                  *
          * [ (Grassmann/Stiefel manifold implementation)  ] *
          *                                                  *
          *      [ NorthWest Chemistry implementation ]      *
          *                                                  *
          *            version #5.10   06/12/02              *
          *                                                  *
          *    This code was developed by Eric J. Bylaska,   *
          *    and was based upon algorithms and code        *
          *    developed by the group of Prof. John H. Weare *
          *                                                  *
          ****************************************************
     >>>  JOB STARTED       AT Tue May 10 11:13:31 2022  <<<
          ================ input data ========================

 input psi filename:./perm/pspw-pbe-H4O2-mylabel.movecs

 number of processors used:         4
 processor grid           :   4 x   1
 parallel mapping         : 2d-hcurve
 parallel mapping         :  balanced
 number of threads        :         1
 parallel io              :       off

 options:
      boundary conditions  = periodic    (version3)
      electron spin        = restricted
      exchange-correlation = PBE96 (White and Bird) parameterization

 elements involved in the cluster:
      1: O   valence charge:  6.0000  lmax=  2
             comment    : Parameterized (Chem.Phys.Lett., vol 322, page 447) Hamman psp
             pseudpotential type            :   0
             highest angular component      :   2
             local potential used           :   2
             number of non-local projections:   4
             cutoff =   0.700   0.700   0.700

      2: H   valence charge:  1.0000  lmax=  1
             comment    : Parameterized (Chem.Phys.Lett., vol 322, page 447) Hamman psp
             pseudpotential type            :   0
             highest angular component      :   1
             local potential used           :   1
             number of non-local projections:   1
             cutoff =   0.800   0.800


 total charge:   0.000

 atomic composition:
     O   :    2     H   :    4

 number of electrons: spin up=     8 (   8 per task)  down=     8 (   8 per task) (Fourier space)
 number of orbitals : spin up=     8 (   8 per task)  down=     8 (   8 per task) (Fourier space)

 supercell:
      cell_name:  cell_default                                      
      lattice:    a1=<  19.000  19.000   0.000 >
                  a2=<  19.000   0.000  19.000 >
                  a3=<   0.000  19.000  19.000 >
      reciprocal: b1=<   0.165   0.165  -0.165 >
                  b2=<   0.165  -0.165   0.165 >
                  b3=<  -0.165   0.165   0.165 >
      lattice:    a=      26.870 b=     26.870 c=      26.870
                  alpha=  60.000 beta=  60.000 gamma=  60.000
                  omega=     13718.0

      density cutoff=100.000  fft=100x100x100(   282860 waves    70715 per task)
      wavefnc cutoff= 50.000  fft=100x100x100(   115733 waves    28934 per task)
      Ewald summation: cut radius=    8.55  and  1
                       Madelung Wigner-Seitz=    1.79174723 (alpha=    2.88828212 rs=14.85026019)

 technical parameters:
      time step=      5.80     fictitious mass=  400000.0
      tolerance=0.100E-06 (energy)   0.100E-06 (density)
      maximum iterations =      1000 (   10 inner    100 outer )





== Energy Calculation ==


          ============ Grassmann lmbfgs iteration ============
     >>>  ITERATION STARTED AT Tue May 10 11:13:31 2022  <<<
    iter.           Energy         DeltaE       DeltaRho 
    ------------------------------------------------------
      10   -0.3434537152E+02   -0.22132E-03    0.23660E-01
      20   -0.3434584351E+02   -0.56425E-05    0.20538E-04
      30   -0.3434585702E+02   -0.22409E-06    0.20081E-06
      40   -0.3434585742E+02   -0.95475E-07    0.11911E-08
  *** tolerance ok. iteration terminated
     >>>  ITERATION ENDED   AT Tue May 10 11:14:09 2022  <<<


==  Summary Of Results  ==

 number of electrons: spin up=    8.00000  down=    8.00000 (real space)

 total     energy    :  -0.3434585742E+02 (   -0.57243E+01/ion)
 total orbital energy:  -0.8081676201E+01 (   -0.10102E+01/electron)
 hartree   energy    :   0.3993002518E+02 (    0.49913E+01/electron)
 exc-corr  energy    :  -0.8486005390E+01 (   -0.10608E+01/electron)
 ion-ion   energy    :   0.1114749974E+02 (    0.18579E+01/ion)

 kinetic (planewave) :   0.2468300682E+02 (    0.30854E+01/electron)
 V_local (planewave) :  -0.9918402208E+02 (   -0.12398E+02/electron)
 V_nl    (planewave) :  -0.2436361684E+01 (   -0.30455E+00/electron)
 V_Coul  (planewave) :   0.7986005036E+02 (    0.99825E+01/electron)
 V_xc.   (planewave) :  -0.1100434961E+02 (   -0.13755E+01/electron)
 Virial Coefficient  :  -0.1327418627E+01

 orbital energies:
    -0.2322195E+00 (  -6.319eV)
    -0.2914536E+00 (  -7.931eV)
    -0.2998376E+00 (  -8.159eV)
    -0.3709736E+00 ( -10.095eV)
    -0.4595383E+00 ( -12.505eV)
    -0.5257620E+00 ( -14.307eV)
    -0.8988170E+00 ( -24.458eV)
    -0.9622365E+00 ( -26.184eV)

 Total PSPW energy     :  -0.3434585742E+02


=== Spin Contamination ===

 <Sexact^2> =    0.0000000000000000     
 <S^2>      =    0.0000000000000000     



== Center of Charge ==

spin up     (    0.1161,    0.4281,    2.5493 )
spin down   (    0.1161,    0.4281,    2.5493 )
     total  (    0.1161,    0.4281,    2.5493 )
ionic       (    0.1029,    0.4281,    2.4524 )


== Molecular Dipole wrt Center of Mass ==

mu   =  (   -0.2108,   -0.0002,   -1.5499 ) au
|mu| =     1.5641 au,       3.9754 Debye

 output psi filename:./perm/pspw-pbe-H4O2-mylabel.movecs

 Writing Crystallographic Information File:./perm/H4O2.cif
   - cell not shifted (nwpw:cif_shift_cell .false.)


== Timing ==

cputime in seconds
  prologue    :   0.379800E+00
  main loop   :   0.379276E+02
  epilogue    :   0.247276E+00
  total       :   0.385547E+02
  cputime/step:   0.505701E+00       (      75 evalulations,      33 linesearches)


Time spent doing                        total          step       percent
  total time                 :   0.385604E+02  0.514139E+00       100.0 %
  i/o time                   :   0.445484E+00  0.593979E-02         1.2 %
  FFTs                       :   0.984494E+01  0.131266E+00        25.5 %
  dot products               :   0.971217E+00  0.129496E-01         2.5 %
  geodesic                   :   0.197107E+01  0.262809E-01         5.1 %
  ffm_dgemm                  :   0.196624E+00  0.262165E-02         0.5 %
  fmf_dgemm                  :   0.164460E+01  0.219281E-01         4.3 %
  mmm_dgemm                  :   0.871200E-02  0.116160E-03         0.0 %
  m_diagonalize              :   0.242198E-02  0.322931E-04         0.0 %
  exchange correlation       :   0.130497E+02  0.173996E+00        33.8 %
  local pseudopotentials     :   0.886500E-02  0.118200E-03         0.0 %
  non-local pseudopotentials :   0.223819E+01  0.298425E-01         5.8 %
  hartree potentials         :   0.115324E+00  0.153765E-02         0.3 %
  ion-ion interaction        :   0.313000E-01  0.417333E-03         0.1 %
  structure factors          :   0.230871E+00  0.307828E-02         0.6 %
  phase factors              :   0.150000E-04  0.200000E-06         0.0 %
  masking and packing        :   0.184499E+01  0.245998E-01         4.8 %
  queue fft                  :   0.142258E+02  0.189677E+00        36.9 %
  queue fft (serial)         :   0.522362E+01  0.696482E-01        13.5 %
  queue fft (message passing):   0.863540E+01  0.115139E+00        22.4 %
  non-local psp FFM          :   0.713694E+00  0.951592E-02         1.9 %
  non-local psp FMF          :   0.120540E+01  0.160720E-01         3.1 %
  non-local psp FFM A        :   0.134429E+00  0.179238E-02         0.3 %
  non-local psp FFM B        :   0.423964E+00  0.565285E-02         1.1 %

     >>>  JOB COMPLETED     AT Tue May 10 11:14:09 2022  <<<
 Line search: 
     step= 1.00 grad=-3.9D-03 hess= 2.5D-03 energy=    -34.345857 mode=downhill
 new step= 0.79                   predicted energy=    -34.345967

          --------
          Step   1
          --------


                         Geometry "geometry" -> "geometry"
                         ---------------------------------

 Output coordinates in angstroms (scale by  1.889725989 to convert to a.u.)

  No.       Tag          Charge          X              Y              Z
 ---- ---------------- ---------- -------------- -------------- --------------
    1 O                    8.0000     0.14161354    -0.05189402     0.06659048
    2 H                    1.0000     0.79260157     0.37575258    -0.47149467
    3 H                    1.0000    -0.33958922    -0.65649675    -0.48441365
    4 O                    8.0000     0.01399809     0.48944262     2.79699339
    5 H                    1.0000    -0.72375534     1.07482322     2.69187594
    6 H                    1.0000     0.20904136     0.19586236     1.90430851

      Atomic Mass 
      ----------- 

      O                 15.994910
      H                  1.007825


 Effective nuclear repulsion energy (a.u.)      37.5459309844

            Nuclear Dipole moment (a.u.) 
            ----------------------------
        X                 Y               Z
 ---------------- ---------------- ----------------
     2.2359076277     8.4854936322    50.1702353298

          ****************************************************
          *                                                  *
          *               NWPW PSPW Calculation              *
          *                                                  *
          * [ (Grassmann/Stiefel manifold implementation)  ] *
          *                                                  *
          *      [ NorthWest Chemistry implementation ]      *
          *                                                  *
          *            version #5.10   06/12/02              *
          *                                                  *
          *    This code was developed by Eric J. Bylaska,   *
          *    and was based upon algorithms and code        *
          *    developed by the group of Prof. John H. Weare *
          *                                                  *
          ****************************************************
     >>>  JOB STARTED       AT Tue May 10 11:14:09 2022  <<<
          ================ input data ========================

 input psi filename:./perm/pspw-pbe-H4O2-mylabel.movecs

 number of processors used:         4
 processor grid           :   4 x   1
 parallel mapping         : 2d-hcurve
 parallel mapping         :  balanced
 number of threads        :         1
 parallel io              :       off

 options:
      boundary conditions  = periodic    (version3)
      electron spin        = restricted
      exchange-correlation = PBE96 (White and Bird) parameterization

 elements involved in the cluster:
      1: O   valence charge:  6.0000  lmax=  2
             comment    : Parameterized (Chem.Phys.Lett., vol 322, page 447) Hamman psp
             pseudpotential type            :   0
             highest angular component      :   2
             local potential used           :   2
             number of non-local projections:   4
             cutoff =   0.700   0.700   0.700

      2: H   valence charge:  1.0000  lmax=  1
             comment    : Parameterized (Chem.Phys.Lett., vol 322, page 447) Hamman psp
             pseudpotential type            :   0
             highest angular component      :   1
             local potential used           :   1
             number of non-local projections:   1
             cutoff =   0.800   0.800


 total charge:   0.000

 atomic composition:
     O   :    2     H   :    4

 number of electrons: spin up=     8 (   8 per task)  down=     8 (   8 per task) (Fourier space)
 number of orbitals : spin up=     8 (   8 per task)  down=     8 (   8 per task) (Fourier space)

 supercell:
      cell_name:  cell_default                                      
      lattice:    a1=<  19.000  19.000   0.000 >
                  a2=<  19.000   0.000  19.000 >
                  a3=<   0.000  19.000  19.000 >
      reciprocal: b1=<   0.165   0.165  -0.165 >
                  b2=<   0.165  -0.165   0.165 >
                  b3=<  -0.165   0.165   0.165 >
      lattice:    a=      26.870 b=     26.870 c=      26.870
                  alpha=  60.000 beta=  60.000 gamma=  60.000
                  omega=     13718.0

      density cutoff=100.000  fft=100x100x100(   282860 waves    70715 per task)
      wavefnc cutoff= 50.000  fft=100x100x100(   115733 waves    28934 per task)
      Ewald summation: cut radius=    8.55  and  1
                       Madelung Wigner-Seitz=    1.79174723 (alpha=    2.88828212 rs=14.85026019)

 technical parameters:
      time step=      5.80     fictitious mass=  400000.0
      tolerance=0.100E-06 (energy)   0.100E-06 (density)
      maximum iterations =      1000 (   10 inner    100 outer )





== Energy Calculation ==


          ============ Grassmann lmbfgs iteration ============
     >>>  ITERATION STARTED AT Tue May 10 11:14:10 2022  <<<
    iter.           Energy         DeltaE       DeltaRho 
    ------------------------------------------------------
      10   -0.3434594805E+02   -0.97643E-05    0.10510E-02
      20   -0.3434596887E+02   -0.24453E-06    0.90055E-06
      30   -0.3434596924E+02   -0.83231E-07    0.26882E-08
  *** tolerance ok. iteration terminated
     >>>  ITERATION ENDED   AT Tue May 10 11:14:37 2022  <<<


==  Summary Of Results  ==

 number of electrons: spin up=    8.00000  down=    8.00000 (real space)

 total     energy    :  -0.3434596924E+02 (   -0.57243E+01/ion)
 total orbital energy:  -0.8066334417E+01 (   -0.10083E+01/electron)
 hartree   energy    :   0.3988604931E+02 (    0.49858E+01/electron)
 exc-corr  energy    :  -0.8476710601E+01 (   -0.10596E+01/electron)
 ion-ion   energy    :   0.1109088286E+02 (    0.18485E+01/ion)

 kinetic (planewave) :   0.2463920851E+02 (    0.30799E+01/electron)
 V_local (planewave) :  -0.9906759781E+02 (   -0.12383E+02/electron)
 V_nl    (planewave) :  -0.2417801514E+01 (   -0.30223E+00/electron)
 V_Coul  (planewave) :   0.7977209862E+02 (    0.99715E+01/electron)
 V_xc.   (planewave) :  -0.1099224222E+02 (   -0.13740E+01/electron)
 Virial Coefficient  :  -0.1327377984E+01

 orbital energies:
    -0.2316969E+00 (  -6.305eV)
    -0.2915180E+00 (  -7.933eV)
    -0.3002250E+00 (  -8.170eV)
    -0.3727541E+00 ( -10.143eV)
    -0.4571889E+00 ( -12.441eV)
    -0.5217416E+00 ( -14.197eV)
    -0.8970515E+00 ( -24.410eV)
    -0.9609911E+00 ( -26.150eV)

 Total PSPW energy     :  -0.3434596924E+02


=== Spin Contamination ===

 <Sexact^2> =    0.0000000000000000     
 <S^2>      =    0.0000000000000000     



== Center of Charge ==

spin up     (    0.1161,    0.4269,    2.5570 )
spin down   (    0.1161,    0.4269,    2.5570 )
     total  (    0.1161,    0.4269,    2.5570 )
ionic       (    0.1030,    0.4270,    2.4592 )


== Molecular Dipole wrt Center of Mass ==

mu   =  (   -0.2097,    0.0015,   -1.5653 ) au
|mu| =     1.5793 au,       4.0140 Debye


Translation force removed: (    0.00023   -0.00032   -0.00028)


          =============  Ion Gradients =================
 Ion Forces:
        1 O    (   -0.000667   -0.000328   -0.000734 )
        2 H    (   -0.001730   -0.001828   -0.001884 )
        3 H    (    0.003110    0.002565    0.000353 )
        4 O    (    0.000828    0.000080    0.000344 )
        5 H    (    0.001169   -0.000735    0.000463 )
        6 H    (   -0.003837    0.001981    0.004184 )
        C.O.M. (    0.000000   -0.000000   -0.000000 )
          ===============================================
          |F|       =   0.815112E-02
          |F|/nion  =   0.135852E-02
          max|Fatom|=   0.601317E-02 (   0.309eV/Angstrom)



 output psi filename:./perm/pspw-pbe-H4O2-mylabel.movecs

 Writing Crystallographic Information File:./perm/H4O2.cif
   - cell not shifted (nwpw:cif_shift_cell .false.)


== Timing ==

cputime in seconds
  prologue    :   0.426696E+00
  main loop   :   0.273001E+02
  epilogue    :   0.235539E+00
  total       :   0.279623E+02
  cputime/step:   0.515096E+00       (      53 evalulations,      23 linesearches)


Time spent doing                        total          step       percent
  total time                 :   0.279690E+02  0.527718E+00       100.0 %
  i/o time                   :   0.447971E+00  0.845228E-02         1.6 %
  FFTs                       :   0.700589E+01  0.132187E+00        25.0 %
  dot products               :   0.742795E+00  0.140150E-01         2.7 %
  geodesic                   :   0.144190E+01  0.272056E-01         5.2 %
  ffm_dgemm                  :   0.146853E+00  0.277081E-02         0.5 %
  fmf_dgemm                  :   0.118978E+01  0.224487E-01         4.3 %
  mmm_dgemm                  :   0.127660E-01  0.240868E-03         0.0 %
  m_diagonalize              :   0.186899E-02  0.352639E-04         0.0 %
  exchange correlation       :   0.926500E+01  0.174811E+00        33.1 %
  local pseudopotentials     :   0.241270E-01  0.455226E-03         0.1 %
  non-local pseudopotentials :   0.164977E+01  0.311276E-01         5.9 %
  hartree potentials         :   0.821220E-01  0.154947E-02         0.3 %
  ion-ion interaction        :   0.395240E-01  0.745736E-03         0.1 %
  structure factors          :   0.180257E+00  0.340107E-02         0.6 %
  phase factors              :   0.150000E-04  0.283019E-06         0.0 %
  masking and packing        :   0.135266E+01  0.255219E-01         4.8 %
  queue fft                  :   0.102543E+02  0.193477E+00        36.7 %
  queue fft (serial)         :   0.374261E+01  0.706154E-01        13.4 %
  queue fft (message passing):   0.624079E+01  0.117751E+00        22.3 %
  non-local psp FFM          :   0.511669E+00  0.965413E-02         1.8 %
  non-local psp FMF          :   0.861324E+00  0.162514E-01         3.1 %
  non-local psp FFM A        :   0.960898E-01  0.181301E-02         0.3 %
  non-local psp FFM B        :   0.308190E+00  0.581491E-02         1.1 %

     >>>  JOB COMPLETED     AT Tue May 10 11:14:37 2022  <<<

  Step       Energy      Delta E   Gmax     Grms     Xrms     Xmax   Walltime
  ---- ---------------- -------- -------- -------- -------- -------- --------
@    1     -34.34596924 -1.6D-03  0.00418  0.00192  0.01944  0.05265    129.5
                                                                    

          ****************************************************
          *                                                  *
          *               NWPW PSPW Calculation              *
          *                                                  *
          * [ (Grassmann/Stiefel manifold implementation)  ] *
          *                                                  *
          *      [ NorthWest Chemistry implementation ]      *
          *                                                  *
          *            version #5.10   06/12/02              *
          *                                                  *
          *    This code was developed by Eric J. Bylaska,   *
          *    and was based upon algorithms and code        *
          *    developed by the group of Prof. John H. Weare *
          *                                                  *
          ****************************************************
     >>>  JOB STARTED       AT Tue May 10 11:14:37 2022  <<<
          ================ input data ========================

 input psi filename:./perm/pspw-pbe-H4O2-mylabel.movecs

 number of processors used:         4
 processor grid           :   4 x   1
 parallel mapping         : 2d-hcurve
 parallel mapping         :  balanced
 number of threads        :         1
 parallel io              :       off

 options:
      boundary conditions  = periodic    (version3)
      electron spin        = restricted
      exchange-correlation = PBE96 (White and Bird) parameterization

 elements involved in the cluster:
      1: O   valence charge:  6.0000  lmax=  2
             comment    : Parameterized (Chem.Phys.Lett., vol 322, page 447) Hamman psp
             pseudpotential type            :   0
             highest angular component      :   2
             local potential used           :   2
             number of non-local projections:   4
             cutoff =   0.700   0.700   0.700

      2: H   valence charge:  1.0000  lmax=  1
             comment    : Parameterized (Chem.Phys.Lett., vol 322, page 447) Hamman psp
             pseudpotential type            :   0
             highest angular component      :   1
             local potential used           :   1
             number of non-local projections:   1
             cutoff =   0.800   0.800


 total charge:   0.000

 atomic composition:
     O   :    2     H   :    4

 number of electrons: spin up=     8 (   8 per task)  down=     8 (   8 per task) (Fourier space)
 number of orbitals : spin up=     8 (   8 per task)  down=     8 (   8 per task) (Fourier space)

 supercell:
      cell_name:  cell_default                                      
      lattice:    a1=<  19.000  19.000   0.000 >
                  a2=<  19.000   0.000  19.000 >
                  a3=<   0.000  19.000  19.000 >
      reciprocal: b1=<   0.165   0.165  -0.165 >
                  b2=<   0.165  -0.165   0.165 >
                  b3=<  -0.165   0.165   0.165 >
      lattice:    a=      26.870 b=     26.870 c=      26.870
                  alpha=  60.000 beta=  60.000 gamma=  60.000
                  omega=     13718.0

      density cutoff=100.000  fft=100x100x100(   282860 waves    70715 per task)
      wavefnc cutoff= 50.000  fft=100x100x100(   115733 waves    28934 per task)
      Ewald summation: cut radius=    8.55  and  1
                       Madelung Wigner-Seitz=    1.79174723 (alpha=    2.88828212 rs=14.85026019)

 technical parameters:
      time step=      5.80     fictitious mass=  400000.0
      tolerance=0.100E-06 (energy)   0.100E-06 (density)
      maximum iterations =      1000 (   10 inner    100 outer )





== Energy Calculation ==


          ============ Grassmann lmbfgs iteration ============
     >>>  ITERATION STARTED AT Tue May 10 11:14:38 2022  <<<
    iter.           Energy         DeltaE       DeltaRho 
    ------------------------------------------------------
      10   -0.3434614318E+02   -0.14413E-04    0.98471E-03
      20   -0.3434617284E+02   -0.40920E-06    0.13985E-05
      30   -0.3434617377E+02   -0.99272E-07    0.97173E-08
[...]
  local pseudopotentials     :   0.159920E-01  0.484606E-03         0.1 %
  non-local pseudopotentials :   0.104503E+01  0.316675E-01         5.6 %
  hartree potentials         :   0.538190E-01  0.163088E-02         0.3 %
  ion-ion interaction        :   0.155440E-01  0.471030E-03         0.1 %
  structure factors          :   0.109084E+00  0.330557E-02         0.6 %
  phase factors              :   0.189990E-04  0.575727E-06         0.0 %
  masking and packing        :   0.884786E+00  0.268117E-01         4.7 %
  queue fft                  :   0.683795E+01  0.207211E+00        36.5 %
  queue fft (serial)         :   0.255933E+01  0.775556E-01        13.7 %
  queue fft (message passing):   0.410234E+01  0.124313E+00        21.9 %
  non-local psp FFM          :   0.332439E+00  0.100739E-01         1.8 %
  non-local psp FMF          :   0.564839E+00  0.171163E-01         3.0 %
  non-local psp FFM A        :   0.601219E-01  0.182187E-02         0.3 %
  non-local psp FFM B        :   0.195213E+00  0.591554E-02         1.0 %

     >>>  JOB COMPLETED     AT Tue May 10 11:45:05 2022  <<<
 Line search: 
     step= 1.00 grad=-7.1D-07 hess= 8.7D-07 energy=    -34.347583 mode=bracket 
 new step= 0.41                   predicted energy=    -34.347583

          --------
          Step  33
          --------


                         Geometry "geometry" -> "geometry"
                         ---------------------------------

 Output coordinates in angstroms (scale by  1.889725989 to convert to a.u.)

  No.       Tag          Charge          X              Y              Z
 ---- ---------------- ---------- -------------- -------------- --------------
    1 O                    8.0000     0.00537600     0.11988938    -0.16305922
    2 H                    1.0000     0.88806555     0.27054314    -0.47347576
    3 H                    1.0000    -0.17065597    -0.79309106    -0.34603778
    4 O                    8.0000     0.01408419     0.39419467     2.72365591
    5 H                    1.0000    -0.59730777     1.06308435     2.99417329
    6 H                    1.0000    -0.04565200     0.37286952     1.76860356

      Atomic Mass 
      ----------- 

      O                 15.994910
      H                  1.007825


 Effective nuclear repulsion energy (a.u.)      36.9227575800

            Nuclear Dipole moment (a.u.) 
            ----------------------------
        X                 Y               Z
 ---------------- ---------------- ----------------
     0.4348851671     9.4979109332    46.1622959488

          ****************************************************
          *                                                  *
          *               NWPW PSPW Calculation              *
          *                                                  *
          * [ (Grassmann/Stiefel manifold implementation)  ] *
          *                                                  *
          *      [ NorthWest Chemistry implementation ]      *
          *                                                  *
          *            version #5.10   06/12/02              *
          *                                                  *
          *    This code was developed by Eric J. Bylaska,   *
          *    and was based upon algorithms and code        *
          *    developed by the group of Prof. John H. Weare *
          *                                                  *
          ****************************************************
     >>>  JOB STARTED       AT Tue May 10 11:45:06 2022  <<<
          ================ input data ========================

 input psi filename:./perm/pspw-pbe-H4O2-mylabel.movecs

 number of processors used:         4
 processor grid           :   4 x   1
 parallel mapping         : 2d-hcurve
 parallel mapping         :  balanced
 number of threads        :         1
 parallel io              :       off

 options:
      boundary conditions  = periodic    (version3)
      electron spin        = restricted
      exchange-correlation = PBE96 (White and Bird) parameterization

 elements involved in the cluster:
      1: O   valence charge:  6.0000  lmax=  2
             comment    : Parameterized (Chem.Phys.Lett., vol 322, page 447) Hamman psp
             pseudpotential type            :   0
             highest angular component      :   2
             local potential used           :   2
             number of non-local projections:   4
             cutoff =   0.700   0.700   0.700

      2: H   valence charge:  1.0000  lmax=  1
             comment    : Parameterized (Chem.Phys.Lett., vol 322, page 447) Hamman psp
             pseudpotential type            :   0
             highest angular component      :   1
             local potential used           :   1
             number of non-local projections:   1
             cutoff =   0.800   0.800


 total charge:   0.000

 atomic composition:
     O   :    2     H   :    4

 number of electrons: spin up=     8 (   8 per task)  down=     8 (   8 per task) (Fourier space)
 number of orbitals : spin up=     8 (   8 per task)  down=     8 (   8 per task) (Fourier space)

 supercell:
      cell_name:  cell_default                                      
      lattice:    a1=<  19.000  19.000   0.000 >
                  a2=<  19.000   0.000  19.000 >
                  a3=<   0.000  19.000  19.000 >
      reciprocal: b1=<   0.165   0.165  -0.165 >
                  b2=<   0.165  -0.165   0.165 >
                  b3=<  -0.165   0.165   0.165 >
      lattice:    a=      26.870 b=     26.870 c=      26.870
                  alpha=  60.000 beta=  60.000 gamma=  60.000
                  omega=     13718.0

      density cutoff=100.000  fft=100x100x100(   282860 waves    70715 per task)
      wavefnc cutoff= 50.000  fft=100x100x100(   115733 waves    28934 per task)
      Ewald summation: cut radius=    8.55  and  1
                       Madelung Wigner-Seitz=    1.79174723 (alpha=    2.88828212 rs=14.85026019)

 technical parameters:
      time step=      5.80     fictitious mass=  400000.0
      tolerance=0.100E-06 (energy)   0.100E-06 (density)
      maximum iterations =      1000 (   10 inner    100 outer )





== Energy Calculation ==


          ============ Grassmann lmbfgs iteration ============
     >>>  ITERATION STARTED AT Tue May 10 11:45:06 2022  <<<
    iter.           Energy         DeltaE       DeltaRho 
    ------------------------------------------------------
      10   -0.3434758311E+02   -0.14460E-06    0.14810E-04
      20   -0.3434758321E+02   -0.96461E-07    0.12828E-08
  *** tolerance ok. iteration terminated
     >>>  ITERATION ENDED   AT Tue May 10 11:45:20 2022  <<<


==  Summary Of Results  ==

 number of electrons: spin up=    8.00000  down=    8.00000 (real space)

 total     energy    :  -0.3434758321E+02 (   -0.57246E+01/ion)
 total orbital energy:  -0.8095456358E+01 (   -0.10119E+01/electron)
 hartree   energy    :   0.3949653634E+02 (    0.49371E+01/electron)
 exc-corr  energy    :  -0.8475375553E+01 (   -0.10594E+01/electron)
 ion-ion   energy    :   0.1072949529E+02 (    0.17882E+01/ion)

 kinetic (planewave) :   0.2462532898E+02 (    0.30782E+01/electron)
 V_local (planewave) :  -0.9831320845E+02 (   -0.12289E+02/electron)
 V_nl    (planewave) :  -0.2410359818E+01 (   -0.30129E+00/electron)
 V_Coul  (planewave) :   0.7899307268E+02 (    0.98741E+01/electron)
 V_xc.   (planewave) :  -0.1099028975E+02 (   -0.13738E+01/electron)
 Virial Coefficient  :  -0.1328745105E+01

 orbital energies:
    -0.2380211E+00 (  -6.477eV)
    -0.2870270E+00 (  -7.810eV)
    -0.3136138E+00 (  -8.534eV)
    -0.3684403E+00 ( -10.026eV)
    -0.4632620E+00 ( -12.606eV)
    -0.5136379E+00 ( -13.977eV)
    -0.9039649E+00 ( -24.598eV)
    -0.9597612E+00 ( -26.117eV)

 Total PSPW energy     :  -0.3434758321E+02


=== Spin Contamination ===

 <Sexact^2> =    0.0000000000000000     
 <S^2>      =    0.0000000000000000     



== Center of Charge ==

spin up     (    0.0200,    0.4794,    2.3413 )
spin down   (    0.0200,    0.4794,    2.3413 )
     total  (    0.0200,    0.4794,    2.3413 )
ionic       (    0.0226,    0.4722,    2.2803 )


== Molecular Dipole wrt Center of Mass ==

mu   =  (    0.0410,   -0.1161,   -0.9765 ) au
|mu| =     0.9843 au,       2.5016 Debye


Translation force removed: (   -0.00001    0.00002   -0.00001)


          =============  Ion Gradients =================
 Ion Forces:
        1 O    (   -0.000017   -0.000000   -0.000007 )
        2 H    (   -0.000121    0.000025   -0.000022 )
        3 H    (   -0.000099   -0.000031   -0.000123 )
        4 O    (    0.000053    0.000008    0.000019 )
        5 H    (   -0.000088    0.000043    0.000025 )
        6 H    (    0.000020   -0.000099    0.000030 )
        C.O.M. (   -0.000000    0.000000   -0.000000 )
          ===============================================
          |F|       =   0.257603E-03
          |F|/nion  =   0.429338E-04
          max|Fatom|=   0.160946E-03 (   0.008eV/Angstrom)



 output psi filename:./perm/pspw-pbe-H4O2-mylabel.movecs

 Writing Crystallographic Information File:./perm/H4O2.cif
   - cell not shifted (nwpw:cif_shift_cell .false.)


== Timing ==

cputime in seconds
  prologue    :   0.490386E+00
  main loop   :   0.141621E+02
  epilogue    :   0.257837E+00
  total       :   0.149103E+02
  cputime/step:   0.524523E+00       (      27 evalulations,      11 linesearches)


Time spent doing                        total          step       percent
  total time                 :   0.149162E+02  0.552450E+00       100.0 %
  i/o time                   :   0.504016E+00  0.186673E-01         3.4 %
  FFTs                       :   0.368041E+01  0.136311E+00        24.7 %
  dot products               :   0.392272E+00  0.145286E-01         2.6 %
  geodesic                   :   0.729829E+00  0.270307E-01         4.9 %
  ffm_dgemm                  :   0.782110E-01  0.289670E-02         0.5 %
  fmf_dgemm                  :   0.604719E+00  0.223970E-01         4.1 %
  mmm_dgemm                  :   0.783300E-02  0.290111E-03         0.1 %
  m_diagonalize              :   0.772993E-03  0.286294E-04         0.0 %
  exchange correlation       :   0.480433E+01  0.177938E+00        32.2 %
  local pseudopotentials     :   0.257430E-01  0.953444E-03         0.2 %
  non-local pseudopotentials :   0.855286E+00  0.316773E-01         5.7 %
  hartree potentials         :   0.443040E-01  0.164089E-02         0.3 %
  ion-ion interaction        :   0.370710E-01  0.137300E-02         0.2 %
  structure factors          :   0.101330E+00  0.375296E-02         0.7 %
  phase factors              :   0.180000E-04  0.666667E-06         0.0 %
  masking and packing        :   0.712238E+00  0.263792E-01         4.8 %
  queue fft                  :   0.531374E+01  0.196805E+00        35.6 %
  queue fft (serial)         :   0.202005E+01  0.748167E-01        13.5 %
  queue fft (message passing):   0.315957E+01  0.117021E+00        21.2 %
  non-local psp FFM          :   0.256670E+00  0.950630E-02         1.7 %
  non-local psp FMF          :   0.434691E+00  0.160997E-01         2.9 %
  non-local psp FFM A        :   0.460159E-01  0.170429E-02         0.3 %
  non-local psp FFM B        :   0.155670E+00  0.576555E-02         1.0 %

     >>>  JOB COMPLETED     AT Tue May 10 11:45:20 2022  <<<

  Step       Energy      Delta E   Gmax     Grms     Xrms     Xmax   Walltime
  ---- ---------------- -------- -------- -------- -------- -------- --------
@   33     -34.34758321 -2.4D-08  0.00012  0.00006  0.00057  0.00130   1972.5
                                     ok       ok       ok       ok  


      ----------------------
      Optimization converged
      ----------------------


  Step       Energy      Delta E   Gmax     Grms     Xrms     Xmax   Walltime
  ---- ---------------- -------- -------- -------- -------- -------- --------
@   33     -34.34758321 -2.4D-08  0.00012  0.00006  0.00057  0.00130   1972.5
                                     ok       ok       ok       ok  



                         Geometry "geometry" -> "geometry"
                         ---------------------------------

 Output coordinates in angstroms (scale by  1.889725989 to convert to a.u.)

  No.       Tag          Charge          X              Y              Z
 ---- ---------------- ---------- -------------- -------------- --------------
    1 O                    8.0000     0.00537600     0.11988938    -0.16305922
    2 H                    1.0000     0.88806555     0.27054314    -0.47347576
    3 H                    1.0000    -0.17065597    -0.79309106    -0.34603778
    4 O                    8.0000     0.01408419     0.39419467     2.72365591
    5 H                    1.0000    -0.59730777     1.06308435     2.99417329
    6 H                    1.0000    -0.04565200     0.37286952     1.76860356

      Atomic Mass 
      ----------- 

      O                 15.994910
      H                  1.007825


 Effective nuclear repulsion energy (a.u.)      36.9227575800

            Nuclear Dipole moment (a.u.) 
            ----------------------------
        X                 Y               Z
 ---------------- ---------------- ----------------
     0.4348851671     9.4979109332    46.1622959488

 ==============================================================================
                                internuclear distances
 ------------------------------------------------------------------------------
       center one      |      center two      | atomic units |  angstroms
 ------------------------------------------------------------------------------
    2 H                |   1 O                |     1.79095  |     0.94773
    3 H                |   1 O                |     1.79076  |     0.94763
    5 H                |   4 O                |     1.78716  |     0.94572
    6 H                |   4 O                |     1.80876  |     0.95716
 ------------------------------------------------------------------------------
                         number of included internuclear distances:          4
 ==============================================================================



 ==============================================================================
                                 internuclear angles
 ------------------------------------------------------------------------------
        center 1       |       center 2       |       center 3       |  degrees
 ------------------------------------------------------------------------------
    2 H                |   1 O                |   3 H                |   105.24
    5 H                |   4 O                |   6 H                |   105.12
 ------------------------------------------------------------------------------
                            number of included internuclear angles:          2
 ==============================================================================




 Task  times  cpu:     1912.7s     wall:     1912.7s


                                NWChem Input Module
                                -------------------


 Summary of allocated global arrays
-----------------------------------
  No active global arrays



                         GA Statistics for process    0
                         ------------------------------

       create   destroy   get      put      acc     scatter   gather  read&inc
calls:    0        0        0        0        0        0        0        0     
number of processes/call 0.00e+00 0.00e+00 0.00e+00 0.00e+00 0.00e+00
bytes total:             0.00e+00 0.00e+00 0.00e+00 0.00e+00 0.00e+00 0.00e+00
bytes remote:            0.00e+00 0.00e+00 0.00e+00 0.00e+00 0.00e+00 0.00e+00
Max memory consumed for GA by this process: 0 bytes

MA_summarize_allocated_blocks: starting scan ...
MA_summarize_allocated_blocks: scan completed: 0 heap blocks, 0 stack blocks
MA usage statistics:

	allocation statistics:
					      heap	     stack
					      ----	     -----
	current number of blocks	         0	         0
	maximum number of blocks	       275	        15
	current total bytes		         0	         0
	maximum total bytes		 191978248	  27810088
	maximum total K-bytes		    191979	     27811
	maximum total M-bytes		       192	        28


                                     CITATION
                                     --------
                Please cite the following reference when publishing
                           results obtained with NWChem:

          E. Apra, E. J. Bylaska, W. A. de Jong, N. Govind, K. Kowalski,
       T. P. Straatsma, M. Valiev, H. J. J. van Dam, Y. Alexeev, J. Anchell,
       V. Anisimov, F. W. Aquino, R. Atta-Fynn, J. Autschbach, N. P. Bauman,
     J. C. Becca, D. E. Bernholdt, K. Bhaskaran-Nair, S. Bogatko, P. Borowski,
         J. Boschen, J. Brabec, A. Bruner, E. Cauet, Y. Chen, G. N. Chuev,
      C. J. Cramer, J. Daily, M. J. O. Deegan, T. H. Dunning Jr., M. Dupuis,
   K. G. Dyall, G. I. Fann, S. A. Fischer, A. Fonari, H. Fruchtl, L. Gagliardi,
      J. Garza, N. Gawande, S. Ghosh, K. Glaesemann, A. W. Gotz, J. Hammond,
       V. Helms, E. D. Hermes, K. Hirao, S. Hirata, M. Jacquelin, L. Jensen,
   B. G. Johnson, H. Jonsson, R. A. Kendall, M. Klemm, R. Kobayashi, V. Konkov,
      S. Krishnamoorthy, M. Krishnan, Z. Lin, R. D. Lins, R. J. Littlefield,
      A. J. Logsdail, K. Lopata, W. Ma, A. V. Marenich, J. Martin del Campo,
   D. Mejia-Rodriguez, J. E. Moore, J. M. Mullin, T. Nakajima, D. R. Nascimento,
    J. A. Nichols, P. J. Nichols, J. Nieplocha, A. Otero-de-la-Roza, B. Palmer,
    A. Panyala, T. Pirojsirikul, B. Peng, R. Peverati, J. Pittner, L. Pollack,
   R. M. Richard, P. Sadayappan, G. C. Schatz, W. A. Shelton, D. W. Silverstein,
   D. M. A. Smith, T. A. Soares, D. Song, M. Swart, H. L. Taylor, G. S. Thomas,
            V. Tipparaju, D. G. Truhlar, K. Tsemekhman, T. Van Voorhis,
      A. Vazquez-Mayagoitia, P. Verma, O. Villa, A. Vishnu, K. D. Vogiatzis,
        D. Wang, J. H. Weare, M. J. Williamson, T. L. Windus, K. Wolinski,
        A. T. Wong, Q. Wu, C. Yang, Q. Yu, M. Zacharias, Z. Zhang, Y. Zhao,
                                and R. J. Harrison
                        "NWChem: Past, present, and future
                         J. Chem. Phys. 152, 184102 (2020)
                               doi:10.1063/5.0004997

                                      AUTHORS
                                      -------
     E. Apra, E. J. Bylaska, N. Govind, K. Kowalski, M. Valiev, W. A. de Jong,
      T. P. Straatsma, H. J. J. van Dam, D. Wang, T. L. Windus, N. P. Bauman,
       A. Panyala, J. Hammond, J. Autschbach, K. Bhaskaran-Nair, J. Brabec,
    K. Lopata, S. A. Fischer, S. Krishnamoorthy, M. Jacquelin, W. Ma, M. Klemm,
       O. Villa, Y. Chen, V. Anisimov, F. Aquino, S. Hirata, M. T. Hackler,
           Eric Hermes, L. Jensen, J. E. Moore, J. C. Becca, V. Konjkov,
            D. Mejia-Rodriguez, T. Risthaus, M. Malagoli, A. Marenich,
   A. Otero-de-la-Roza, J. Mullin, P. Nichols, R. Peverati, J. Pittner, Y. Zhao,
        P.-D. Fan, A. Fonari, M. J. Williamson, R. J. Harrison, J. R. Rehr,
      M. Dupuis, D. Silverstein, D. M. A. Smith, J. Nieplocha, V. Tipparaju,
      M. Krishnan, B. E. Van Kuiken, A. Vazquez-Mayagoitia, M. Swart, Q. Wu,
   T. Van Voorhis, A. A. Auer, M. Nooijen, L. D. Crosby, E. Brown, G. Cisneros,
     G. I. Fann, H. Fruchtl, J. Garza, K. Hirao, R. A. Kendall, J. A. Nichols,
       K. Tsemekhman, K. Wolinski, J. Anchell, D. E. Bernholdt, P. Borowski,
       T. Clark, D. Clerc, H. Dachsel, M. J. O. Deegan, K. Dyall, D. Elwood,
      E. Glendening, M. Gutowski, A. C. Hess, J. Jaffe, B. G. Johnson, J. Ju,
        R. Kobayashi, R. Kutteh, Z. Lin, R. Littlefield, X. Long, B. Meng,
      T. Nakajima, S. Niu, L. Pollack, M. Rosing, K. Glaesemann, G. Sandrone,
      M. Stave, H. Taylor, G. Thomas, J. H. van Lenthe, A. T. Wong, Z. Zhang.

 Total times  cpu:     1972.6s     wall:     1972.6s
